LAMMPS data file. CGCMM Style. atom_style full. Created by charmm2lammps v1.9.2 on Thu Apr  3 09:41:28 CDT 2025

       11018  atoms
        7346  bonds
        3728  angles
         116  dihedrals
           2  impropers

          16  atom types
          12  bond types
          19  angle types
          24  dihedral types
           1  improper types

      95.645      140.543 xlo xhi
      83.237      128.077 ylo yhi
      -4.707       53.849 zlo zhi

Masses

       1      1.008  # HC
       2      1.008  # HP
       3      1.008  # HB1
       4      1.008  # HA2
       5     12.011  # CA
       6     12.011  # CT1
       7     12.011  # CT2
       8     12.011  # CC
       9     14.007  # NH3
      10    15.9994  # OC
      11      1.008  # HT
      12    15.9994  # OT
      13      35.45  # CLA
      14   22.98977  # SOD
      15     55.845  # FE3P
      16    15.9994  # OG312

Pair Coeffs # lj/charmm/coul/long

       1            0.046   0.400013524445            0.046   0.400013524445  # HC
       2             0.03    2.42003727796             0.03    2.42003727796  # HP
       3            0.022    2.35197261589            0.022    2.35197261589  # HB1
       4            0.034    2.38760856462            0.034    2.38760856462  # HA2
       5             0.07    3.55005321205             0.07    3.55005321205  # CA
       6            0.032    3.56359487256             0.01    3.38541512893  # CT1
       7            0.056    3.58141284692             0.01    3.38541512893  # CT2
       8             0.07    3.56359487256             0.07    3.56359487256  # CC
       9              0.2    3.29632525712              0.2    3.29632525712  # NH3
      10             0.12    3.02905564168             0.12    3.02905564168  # OC
      11            0.046   0.400013524445            0.046   0.400013524445  # HT
      12           0.1521    3.15057422683           0.1521    3.15057422683  # OT
      13             0.15    4.04468018036             0.15    4.04468018036  # CLA
      14           0.0469    2.51367073323           0.0469    2.51367073323  # SOD
      15           0.1252    1.00903188817           0.1252    1.00903188817  # FE3P
      16             0.12    3.11814551349             0.12    3.11814551349  # OG312

Atoms # full

       1       1     9      -0.3           117.83          105.922           31.811  # NH3
       2       1     1      0.33          117.347          105.724           30.958  # HC
       3       1     1      0.33           118.38           106.75           31.706  # HC
       4       1     1      0.33          117.173          106.041           32.556  # HC
       5       1     6      0.21          118.693          104.827           32.122  # CT1
       6       1     3       0.1          118.032          103.982           32.269  # HB1
       7       1     7    -0.182          119.606          104.629           30.684  # CT2
       8       1     4      0.09          119.917          103.543           30.664  # HA2
       9       1     4      0.09          120.461          105.365           30.718  # HA2
      10       1     5    -0.005          118.809          104.754           29.325  # CA
      11       1     5    -0.118          117.405          104.573            29.22  # CA
      12       1     2     0.115          116.803          104.359           30.105  # HP
      13       1     5    -0.602          119.468          104.832           28.047  # CA
      14       1     2      0.28          120.546          104.867           27.958  # HP
      15       1     5    -0.591          116.713          104.542           27.941  # CA
      16       1     2      0.28          115.643          104.399           27.821  # HP
      17       1     5     0.088          118.792          104.769           26.834  # CA
      18       1    16    -0.764          119.371          104.788           25.727  # OG312
      19       1     5      0.08          117.393          104.615           26.762  # CA
      20       1    16    -0.761          116.949          104.603           25.575  # OG312
      21       1     8      0.34          119.526          105.004           33.453  # CC
      22       1    10     -0.67          119.298          105.886           33.865  # OC
      23       1    10     -0.67          120.098          104.195           33.589  # OC
      24       2     9      -0.3          116.615          104.665           16.055  # NH3
      25       2     1      0.33          116.336          103.717           16.208  # HC
      26       2     1      0.33          117.212           104.72           15.254  # HC
      27       2     1      0.33          115.808           105.24           15.919  # HC
      28       2     6      0.21          117.389          105.168           17.295  # CT1
      29       2     3       0.1          118.255          104.668           17.297  # HB1
      30       2     7    -0.182          116.862          104.616           18.789  # CT2
      31       2     4      0.09          116.821          103.468           18.699  # HA2
      32       2     4      0.09          115.793          104.914           18.826  # HA2
      33       2     5    -0.005          117.449          105.137            20.22  # CA
      34       2     5    -0.118          117.538          106.526           20.537  # CA
      35       2     2     0.115          117.195          107.188           19.782  # HP
      36       2     5    -0.602          117.909          104.249           21.283  # CA
      37       2     2      0.28          117.816            103.2           21.163  # HP
      38       2     5    -0.591          117.946           107.05           21.794  # CA
      39       2     2      0.28          117.829          108.078           22.062  # HP
      40       2     5     0.088          118.043            104.7           22.582  # CA
      41       2    16    -0.764           118.23          103.968           23.567  # OG312
      42       2     5      0.08          117.986          106.056           22.851  # CA
      43       2    16    -0.761          118.148          106.238           24.118  # OG312
      44       2     8      0.34          117.872           106.65           17.155  # CC
      45       2    10     -0.67          117.582          107.004           16.266  # OC
      46       2    10     -0.67          118.363          106.912           17.986  # OC
      47       3    15         3            118.2          104.888           24.741  # FE3P
      48       4    12    -0.834           99.311           93.282           11.158  # OT
      49       4    11     0.417           98.867           93.651           10.355  # HT
      50       4    11     0.417           98.735           93.579           11.881  # HT
      51       5    12    -0.834          101.676           88.076           16.145  # OT
      52       5    11     0.417          101.721           88.424           17.052  # HT
      53       5    11     0.417          102.235           87.288           16.215  # HT
      54       6    12    -0.834          100.212            87.16           25.141  # OT
      55       6    11     0.417           99.602            86.36           25.234  # HT
      56       6    11     0.417           99.638           87.855           24.676  # HT
      57       7    12    -0.834           96.618           97.207           33.821  # OT
      58       7    11     0.417            96.78           96.463            33.22  # HT
      59       7    11     0.417           96.262           96.739           34.614  # HT
      60       8    12    -0.834           102.03           83.574            46.11  # OT
      61       8    11     0.417          101.949             83.3           45.178  # HT
      62       8    11     0.417          102.799           84.226           46.028  # HT
      63       9    12    -0.834           96.567           87.449           45.485  # OT
      64       9    11     0.417           96.996           86.914           46.245  # HT
      65       9    11     0.417           96.303           88.286           45.971  # HT
      66      10    12    -0.834          102.179           86.242           51.647  # OT
      67      10    11     0.417          102.566           85.744            50.86  # HT
      68      10    11     0.417          102.858           86.966           51.839  # HT
      69      11    12    -0.834          100.829           99.896            7.326  # OT
      70      11    11     0.417          101.726          100.179             7.07  # HT
      71      11    11     0.417           100.98           99.032            7.744  # HT
      72      12    12    -0.834           110.08           88.994            25.81  # OT
      73      12    11     0.417          109.167           88.519           25.786  # HT
      74      12    11     0.417          110.627           88.313           26.227  # HT
      75      13    12    -0.834          103.967           97.011           16.586  # OT
      76      13    11     0.417          104.276           96.548           17.366  # HT
      77      13    11     0.417          104.149           96.316           15.899  # HT
      78      14    12    -0.834          107.105          109.226           26.627  # OT
      79      14    11     0.417          107.029          109.895            27.33  # HT
      80      14    11     0.417          106.262           109.28            26.19  # HT
      81      15    12    -0.834           104.08           85.369           46.905  # OT
      82      15    11     0.417          104.682             85.6           46.147  # HT
      83      15    11     0.417          103.914           86.112           47.398  # HT
      84      16    12    -0.834           99.429           99.518           -3.436  # OT
      85      16    11     0.417           99.424           98.588            -3.55  # HT
      86      16    11     0.417          100.171            99.78           -3.965  # HT
      87      17    12    -0.834          101.848           90.191           13.696  # OT
      88      17    11     0.417          102.425           90.547           14.406  # HT
      89      17    11     0.417          100.952           90.262           14.054  # HT
      90      18    12    -0.834          111.769           97.901           -0.169  # OT
      91      18    11     0.417          111.713           97.472            -1.02  # HT
      92      18    11     0.417          112.448           98.654           -0.301  # HT
      93      19    12    -0.834           98.393           92.044            4.883  # OT
      94      19    11     0.417           97.753            91.49            5.252  # HT
      95      19    11     0.417           97.807           92.445            4.216  # HT
      96      20    12    -0.834           99.578           99.395           17.363  # OT
      97      20    11     0.417          100.513           99.234           17.239  # HT
      98      20    11     0.417           99.298           98.567           17.835  # HT
      99      21    12    -0.834           98.634           94.362           23.114  # OT
     100      21    11     0.417           99.237           94.168           22.383  # HT
     101      21    11     0.417           98.057           94.975           22.684  # HT
     102      22    12    -0.834           99.883           90.237           22.335  # OT
     103      22    11     0.417          100.299           91.031           21.912  # HT
     104      22    11     0.417           99.429           90.628           23.066  # HT
     105      23    12    -0.834          102.815           90.199           33.835  # OT
     106      23    11     0.417          102.683            90.75           34.581  # HT
     107      23    11     0.417          101.887           89.956           33.517  # HT
     108      24    12    -0.834          106.317           92.109             0.24  # OT
     109      24    11     0.417          106.641           92.071            1.186  # HT
     110      24    11     0.417          105.391            92.47            0.329  # HT
     111      25    12    -0.834           95.645           88.867            9.845  # OT
     112      25    11     0.417           96.126            89.19            9.084  # HT
     113      25    11     0.417           96.251           88.981           10.601  # HT
     114      26    12    -0.834          105.525           92.356            10.17  # OT
     115      26    11     0.417          105.217           92.953           10.851  # HT
     116      26    11     0.417          105.664           91.464           10.543  # HT
     117      27    12    -0.834          103.607           89.307           24.707  # OT
     118      27    11     0.417          103.885           88.406           24.853  # HT
     119      27    11     0.417          104.065           89.745           25.491  # HT
     120      28    12    -0.834           119.82           97.471            33.38  # OT
     121      28    11     0.417          119.177           97.142           32.713  # HT
     122      28    11     0.417          120.705           97.282           32.936  # HT
     123      29    12    -0.834          101.959           88.488           22.749  # OT
     124      29    11     0.417          102.283           88.831           23.617  # HT
     125      29    11     0.417          101.206           89.052           22.534  # HT
     126      30    12    -0.834           98.021           99.455           47.454  # OT
     127      30    11     0.417           97.946           98.473           47.519  # HT
     128      30    11     0.417           98.345           99.673           48.397  # HT
     129      31    12    -0.834          108.532           112.86            4.341  # OT
     130      31    11     0.417          108.221          112.996            5.229  # HT
     131      31    11     0.417          109.407          112.537            4.466  # HT
     132      32    12    -0.834           97.304           89.881           -2.803  # OT
     133      32    11     0.417           97.586           88.939           -2.765  # HT
     134      32    11     0.417           96.421           89.799           -3.263  # HT
     135      33    12    -0.834          100.464          103.803            6.493  # OT
     136      33    11     0.417          101.109          103.982            7.217  # HT
     137      33    11     0.417          101.027          104.114             5.71  # HT
     138      34    12    -0.834          110.665          104.055            8.085  # OT
     139      34    11     0.417          109.865          104.009            8.546  # HT
     140      34    11     0.417          110.316          104.257            7.172  # HT
     141      35    12    -0.834           96.982           86.982           18.068  # OT
     142      35    11     0.417           96.482           86.625           17.341  # HT
     143      35    11     0.417           97.418           86.277           18.392  # HT
     144      36    12    -0.834           96.128           98.337            17.73  # OT
     145      36    11     0.417           96.287           98.625           18.603  # HT
     146      36    11     0.417           95.955           99.161           17.229  # HT
     147      37    12    -0.834          108.786           96.995           28.733  # OT
     148      37    11     0.417          108.574           96.753            29.61  # HT
     149      37    11     0.417          109.166           97.862           28.773  # HT
     150      38    12    -0.834          108.064          103.795           26.597  # OT
     151      38    11     0.417          107.973          103.821           27.557  # HT
     152      38    11     0.417          107.924          104.726           26.317  # HT
     153      39    12    -0.834          105.598          100.833           36.461  # OT
     154      39    11     0.417          104.684          101.061           36.621  # HT
     155      39    11     0.417          105.848          100.163           37.202  # HT
     156      40    12    -0.834           98.995          118.898           52.189  # OT
     157      40    11     0.417           99.194          118.937           53.136  # HT
     158      40    11     0.417           98.911           117.93           52.011  # HT
     159      41    12    -0.834          102.885           110.02           51.539  # OT
     160      41    11     0.417          102.652          109.252           50.999  # HT
     161      41    11     0.417          102.466          110.749           50.976  # HT
     162      42    12    -0.834          101.251          107.118            8.213  # OT
     163      42    11     0.417          100.483          106.822            7.799  # HT
     164      42    11     0.417           101.68          107.536            7.462  # HT
     165      43    12    -0.834          106.069           90.804           -2.342  # OT
     166      43    11     0.417          106.404           91.601           -2.752  # HT
     167      43    11     0.417          105.891           91.089           -1.438  # HT
     168      44    12    -0.834          104.212          108.884            7.465  # OT
     169      44    11     0.417          104.766          108.742            8.269  # HT
     170      44    11     0.417          104.448          109.795            7.181  # HT
     171      45    12    -0.834           99.912          105.952           11.519  # OT
     172      45    11     0.417           99.792           106.88           11.142  # HT
     173      45    11     0.417          100.704          105.996            12.03  # HT
     174      46    12    -0.834           99.242           96.889           18.837  # OT
     175      46    11     0.417           99.073           96.076           19.316  # HT
     176      46    11     0.417          100.204           96.969           18.915  # HT
     177      47    12    -0.834          115.595           85.161           21.418  # OT
     178      47    11     0.417          116.057           84.279           21.333  # HT
     179      47    11     0.417           116.31           85.853           21.267  # HT
     180      48    12    -0.834           99.721          104.004            45.52  # OT
     181      48    11     0.417          100.145          104.309           46.315  # HT
     182      48    11     0.417           99.036          103.289           45.852  # HT
     183      49    12    -0.834           119.16           94.239           38.038  # OT
     184      49    11     0.417           118.33           93.772           38.148  # HT
     185      49    11     0.417          119.653           93.706           38.615  # HT
     186      50    12    -0.834          118.215           89.442           -1.268  # OT
     187      50    11     0.417          117.348           89.045           -0.916  # HT
     188      50    11     0.417          118.594           88.859           -1.888  # HT
     189      51    12    -0.834          103.425          111.546           15.895  # OT
     190      51    11     0.417          104.298          111.434           16.368  # HT
     191      51    11     0.417          103.312          112.495           15.698  # HT
     192      52    12    -0.834          106.569           88.565           -3.728  # OT
     193      52    11     0.417          106.781           87.969           -2.992  # HT
     194      52    11     0.417            106.3           89.412           -3.253  # HT
     195      53    12    -0.834          134.323          107.845            21.01  # OT
     196      53    11     0.417          134.264          108.584           20.389  # HT
     197      53    11     0.417          134.703          108.174           21.834  # HT
     198      54    12    -0.834           104.29           87.514           14.532  # OT
     199      54    11     0.417          103.607           86.811            14.58  # HT
     200      54    11     0.417          103.686           88.264           14.407  # HT
     201      55    12    -0.834          104.024          100.519           18.529  # OT
     202      55    11     0.417          103.159           100.54           18.949  # HT
     203      55    11     0.417          104.074          101.463           18.263  # HT
     204      56    12    -0.834           99.985           94.588           20.525  # OT
     205      56    11     0.417          100.485           93.897           20.932  # HT
     206      56    11     0.417          100.546           95.348           20.832  # HT
     207      57    12    -0.834           97.313           98.875            24.42  # OT
     208      57    11     0.417           97.763            99.15           25.228  # HT
     209      57    11     0.417           96.406           98.717           24.722  # HT
     210      58    12    -0.834          112.113          111.289           -2.565  # OT
     211      58    11     0.417          112.497           110.43           -2.247  # HT
     212      58    11     0.417          111.176          111.056           -2.658  # HT
     213      59    12    -0.834          104.019          116.114             3.99  # OT
     214      59    11     0.417          104.743          115.483            3.988  # HT
     215      59    11     0.417           104.45          116.995            3.822  # HT
     216      60    12    -0.834          101.664           90.684           52.363  # OT
     217      60    11     0.417          101.308           91.162           53.132  # HT
     218      60    11     0.417            101.8           91.308           51.724  # HT
     219      61    12    -0.834           96.445          108.284            0.777  # OT
     220      61    11     0.417           96.222          109.265            0.759  # HT
     221      61    11     0.417           97.438          108.363            0.699  # HT
     222      62    12    -0.834           99.942          100.974            2.423  # OT
     223      62    11     0.417           98.946          101.003            2.576  # HT
     224      62    11     0.417          100.176          101.955            2.178  # HT
     225      63    12    -0.834          104.535           96.177            0.575  # OT
     226      63    11     0.417          103.762           95.678            0.697  # HT
     227      63    11     0.417          104.985           95.757            -0.21  # HT
     228      64    12    -0.834           98.351          104.169           19.758  # OT
     229      64    11     0.417           98.232          104.145            18.81  # HT
     230      64    11     0.417           98.766          105.035           19.803  # HT
     231      65    12    -0.834           98.071           95.931           25.741  # OT
     232      65    11     0.417           98.362           95.273           25.084  # HT
     233      65    11     0.417           98.225           96.742           25.262  # HT
     234      66    12    -0.834          106.924          114.786            19.48  # OT
     235      66    11     0.417           106.79          113.838           19.302  # HT
     236      66    11     0.417          107.774          114.761           19.956  # HT
     237      67    12    -0.834          109.416          100.796           42.368  # OT
     238      67    11     0.417          108.472          100.924           42.478  # HT
     239      67    11     0.417          109.686          100.348           43.229  # HT
     240      68    12    -0.834          106.335          119.051           38.398  # OT
     241      68    11     0.417          106.432          118.801           37.491  # HT
     242      68    11     0.417          106.346          118.233           38.897  # HT
     243      69    12    -0.834           99.136           91.208           49.062  # OT
     244      69    11     0.417          100.082           91.543           48.935  # HT
     245      69    11     0.417           98.585           91.941           48.713  # HT
     246      70    12    -0.834           97.817          101.668           -2.534  # OT
     247      70    11     0.417           98.275          100.828           -2.543  # HT
     248      70    11     0.417           98.574           102.32           -2.465  # HT
     249      71    12    -0.834           97.455          123.828           -0.252  # OT
     250      71    11     0.417           97.872          124.741           -0.352  # HT
     251      71    11     0.417           97.347          123.717             0.69  # HT
     252      72    12    -0.834          100.691           92.246           31.832  # OT
     253      72    11     0.417          100.707           93.089           32.313  # HT
     254      72    11     0.417          100.265           92.424           30.997  # HT
     255      73    12    -0.834          100.461          120.058           13.041  # OT
     256      73    11     0.417           99.789           119.42           12.721  # HT
     257      73    11     0.417          100.627            119.8           13.939  # HT
     258      74    12    -0.834          105.229          118.505           31.517  # OT
     259      74    11     0.417          105.596          119.026           32.263  # HT
     260      74    11     0.417          105.906          118.711           30.785  # HT
     261      75    12    -0.834          108.033          110.507           32.614  # OT
     262      75    11     0.417          107.488          111.313           32.547  # HT
     263      75    11     0.417          107.688           110.12           33.429  # HT
     264      76    12    -0.834          135.558          102.234           48.747  # OT
     265      76    11     0.417          135.319          102.215           47.791  # HT
     266      76    11     0.417          134.676          102.099           49.139  # HT
     267      77    12    -0.834          104.977          126.506            1.257  # OT
     268      77    11     0.417          105.498          125.894            0.675  # HT
     269      77    11     0.417          104.313          126.793            0.619  # HT
     270      78    12    -0.834           96.974          119.342           -2.045  # OT
     271      78    11     0.417           96.008          119.331           -1.783  # HT
     272      78    11     0.417           97.315          118.484           -1.713  # HT
     273      79    12    -0.834           98.559          115.113            4.232  # OT
     274      79    11     0.417           99.416          115.587             4.27  # HT
     275      79    11     0.417           97.868          115.779            4.282  # HT
     276      80    12    -0.834           98.503          124.178            7.209  # OT
     277      80    11     0.417           98.012          124.513            8.006  # HT
     278      80    11     0.417           98.044          124.574            6.455  # HT
     279      81    12    -0.834          114.513           104.66           24.225  # OT
     280      81    11     0.417          113.546          104.488           23.975  # HT
     281      81    11     0.417          114.717          103.891           24.845  # HT
     282      82    12    -0.834          101.722          116.556           20.851  # OT
     283      82    11     0.417          102.126          117.137           21.519  # HT
     284      82    11     0.417          100.825          116.991            20.75  # HT
     285      83    12    -0.834           99.165          112.894           22.529  # OT
     286      83    11     0.417           98.622          112.439           23.289  # HT
     287      83    11     0.417           98.533           113.45           22.141  # HT
     288      84    12    -0.834          110.987          117.938           27.985  # OT
     289      84    11     0.417          111.169          118.745           28.414  # HT
     290      84    11     0.417          110.556          118.225           27.138  # HT
     291      85    12    -0.834          100.081          122.506           41.442  # OT
     292      85    11     0.417           99.475          121.955           41.968  # HT
     293      85    11     0.417          100.431          121.863           40.808  # HT
     294      86    12    -0.834          106.068          125.196           44.168  # OT
     295      86    11     0.417          106.071          124.198           44.009  # HT
     296      86    11     0.417          106.838          125.375            44.69  # HT
     297      87    12    -0.834          104.707          113.646            12.95  # OT
     298      87    11     0.417          105.539          113.392           13.335  # HT
     299      87    11     0.417          104.141          113.831           13.745  # HT
     300      88    12    -0.834          114.063          115.207           17.583  # OT
     301      88    11     0.417          113.556           115.01           18.343  # HT
     302      88    11     0.417          114.988           115.39           17.916  # HT
     303      89    12    -0.834          110.013           119.37           31.264  # OT
     304      89    11     0.417          110.433          119.953           30.558  # HT
     305      89    11     0.417          110.712          118.683           31.298  # HT
     306      90    12    -0.834           97.772           104.64           40.874  # OT
     307      90    11     0.417           98.172          105.483           41.165  # HT