LAMMPS data file. CGCMM Style. atom_style full. Created by charmm2lammps v1.9.2 on Tue Apr  1 15:45:41 CDT 2025

          47  atoms
          46  bonds
          78  angles
         116  dihedrals
           2  impropers

          12  atom types
          11  bond types
          18  angle types
          24  dihedral types
           1  improper types

     115.643      120.546 xlo xhi
       103.2      108.078 ylo yhi
      15.254       33.865 zlo zhi

Masses

       1      1.008  # HC
       2      1.008  # HP
       3      1.008  # HB1
       4      1.008  # HA2
       5     12.011  # CA
       6     12.011  # CT1
       7     12.011  # CT2
       8     12.011  # CC
       9     14.007  # NH3
      10    15.9994  # OC
      11     55.845  # FE3P
      12    15.9994  # OG312

Pair Coeffs # lj/charmm/coul/long

       1            0.046   0.400013524445            0.046   0.400013524445  # HC
       2             0.03    2.42003727796             0.03    2.42003727796  # HP
       3            0.022    2.35197261589            0.022    2.35197261589  # HB1
       4            0.034    2.38760856462            0.034    2.38760856462  # HA2
       5             0.07    3.55005321205             0.07    3.55005321205  # CA
       6            0.032    3.56359487256             0.01    3.38541512893  # CT1
       7            0.056    3.58141284692             0.01    3.38541512893  # CT2
       8             0.07    3.56359487256             0.07    3.56359487256  # CC
       9              0.2    3.29632525712              0.2    3.29632525712  # NH3
      10             0.12    3.02905564168             0.12    3.02905564168  # OC
      11           0.1252    1.00903188817           0.1252    1.00903188817  # FE3P
      12             0.12    3.11814551349             0.12    3.11814551349  # OG312

Atoms # full

       1       1     9      -0.3           117.83          105.922           31.811  # NH3
       2       1     1      0.33          117.347          105.724           30.958  # HC
       3       1     1      0.33           118.38           106.75           31.706  # HC
       4       1     1      0.33          117.173          106.041           32.556  # HC
       5       1     6      0.21          118.693          104.827           32.122  # CT1
       6       1     3       0.1          118.032          103.982           32.269  # HB1
       7       1     7    -0.182          119.606          104.629           30.684  # CT2
       8       1     4      0.09          119.917          103.543           30.664  # HA2
       9       1     4      0.09          120.461          105.365           30.718  # HA2
      10       1     5    -0.005          118.809          104.754           29.325  # CA
      11       1     5    -0.118          117.405          104.573            29.22  # CA
      12       1     2     0.115          116.803          104.359           30.105  # HP
      13       1     5    -0.602          119.468          104.832           28.047  # CA
      14       1     2      0.28          120.546          104.867           27.958  # HP
      15       1     5    -0.591          116.713          104.542           27.941  # CA
      16       1     2      0.28          115.643          104.399           27.821  # HP
      17       1     5     0.088          118.792          104.769           26.834  # CA
      18       1    12    -0.764          119.371          104.788           25.727  # OG312
      19       1     5      0.08          117.393          104.615           26.762  # CA
      20       1    12    -0.761          116.949          104.603           25.575  # OG312
      21       1     8      0.34          119.526          105.004           33.453  # CC
      22       1    10     -0.67          119.298          105.886           33.865  # OC
      23       1    10     -0.67          120.098          104.195           33.589  # OC
      24       2     9      -0.3          116.615          104.665           16.055  # NH3
      25       2     1      0.33          116.336          103.717           16.208  # HC
      26       2     1      0.33          117.212           104.72           15.254  # HC
      27       2     1      0.33          115.808           105.24           15.919  # HC
      28       2     6      0.21          117.389          105.168           17.295  # CT1
      29       2     3       0.1          118.255          104.668           17.297  # HB1
      30       2     7    -0.182          116.862          104.616           18.789  # CT2
      31       2     4      0.09          116.821          103.468           18.699  # HA2
      32       2     4      0.09          115.793          104.914           18.826  # HA2
      33       2     5    -0.005          117.449          105.137            20.22  # CA
      34       2     5    -0.118          117.538          106.526           20.537  # CA
      35       2     2     0.115          117.195          107.188           19.782  # HP
      36       2     5    -0.602          117.909          104.249           21.283  # CA
      37       2     2      0.28          117.816            103.2           21.163  # HP
      38       2     5    -0.591          117.946           107.05           21.794  # CA
      39       2     2      0.28          117.829          108.078           22.062  # HP
      40       2     5     0.088          118.043            104.7           22.582  # CA
      41       2    12    -0.764           118.23          103.968           23.567  # OG312
      42       2     5      0.08          117.986          106.056           22.851  # CA
      43       2    12    -0.761          118.148          106.238           24.118  # OG312
      44       2     8      0.34          117.872           106.65           17.155  # CC
      45       2    10     -0.67          117.582          107.004           16.266  # OC
      46       2    10     -0.67          118.363          106.912           17.986  # OC
      47       3    11         3            118.2          104.888           24.741  # FE3P

Bond Coeffs # harmonic

       1              305            1.375  # CA   CA  
       2              230             1.49  # CA   CT2 
       3              340             1.08  # CA   HP  
       4              525             1.26  # CA   OG312   
       5              200            1.522  # CC   CT1 
       6              525             1.26  # CC   OC  
       7            222.5            1.538  # CT1  CT2 
       8              330             1.08  # CT1  HB1 
       9              200             1.48  # CT1  NH3 
      10              309            1.111  # CT2  HA2 
      11              403             1.04  # HC   NH3 

Bonds

       1       9       1       5  # CT1  NH3 
       2      11       2       1  # HC   NH3 
       3      11       3       1  # HC   NH3 
       4      11       4       1  # HC   NH3 
       5       8       5       6  # CT1  HB1 
       6       7       7       5  # CT1  CT2 
       7      10       7       8  # CT2  HA2 
       8      10       7       9  # CT2  HA2 
       9       2       7      10  # CA   CT2 
      10       1      10      11  # CA   CA  
      11       3      11      12  # CA   HP  
      12       3      13      14  # CA   HP  
      13       1      13      17  # CA   CA  
      14       1      13      10  # CA   CA  
      15       3      15      16  # CA   HP  
      16       1      15      19  # CA   CA  
      17       1      15      11  # CA   CA  
      18       4      17      18  # CA   OG312   
      19       1      17      19  # CA   CA  
      20       4      19      20  # CA   OG312   
      21       6      21      23  # CC   OC  
      22       6      21      22  # CC   OC  
      23       5      21       5  # CC   CT1 
      24       9      24      28  # CT1  NH3 
      25      11      25      24  # HC   NH3 
      26      11      26      24  # HC   NH3 
      27      11      27      24  # HC   NH3 
      28       8      28      29  # CT1  HB1 
      29       7      30      28  # CT1  CT2 
      30      10      30      31  # CT2  HA2 
      31      10      30      32  # CT2  HA2 
      32       2      30      33  # CA   CT2 
      33       1      33      34  # CA   CA  
      34       3      34      35  # CA   HP  
      35       3      36      37  # CA   HP  
      36       1      36      40  # CA   CA  
      37       1      36      33  # CA   CA  
      38       3      38      39  # CA   HP  
      39       1      38      42  # CA   CA  
      40       1      38      34  # CA   CA  
      41       4      40      41  # CA   OG312   
      42       1      40      42  # CA   CA  
      43       4      42      43  # CA   OG312   
      44       6      44      46  # CC   OC  
      45       6      44      45  # CC   OC  
      46       5      44      28  # CC   CT1 

Angle Coeffs # charmm

       1               40              120               35           2.4162  # CA   CA   CA  
       2             45.8            122.3                0                0  # CA   CA   CT2 
       3               30              120               22           2.1525  # CA   CA   HP  
       4               40              120                0                0  # CA   CA   OG312   
       5             51.8            107.5                0                0  # CA   CT2  CT1 
       6             49.3            107.5                0                0  # CA   CT2  HA2 
       7               52              108                0                0  # CC   CT1  CT2 
       8               50            109.5                0                0  # CC   CT1  HB1 
       9             43.7              110                0                0  # CC   CT1  NH3 
      10               40              118               50            2.388  # CT1  CC   OC  
      11             26.5            110.1            22.53            2.179  # CT1  CT2  HA2 
      12               30            109.5               20            2.074  # CT1  NH3  HC  
      13               35              111                0                0  # CT2  CT1  HB1 
      14             67.7              110                0                0  # CT2  CT1  NH3 
      15             35.5              109              5.4            1.802  # HA2  CT2  HA2 
      16             51.5            107.5                0                0  # HB1  CT1  NH3 
      17               44            109.5                0                0  # HC   NH3  HC  
      18              100              124               70            2.225  # OC   CC   OC  

Angles

       1       9       1       5      21  # CC   CT1  NH3 
       2      12       2       1       5  # CT1  NH3  HC  
       3      17       2       1       4  # HC   NH3  HC  
       4      17       2       1       3  # HC   NH3  HC  
       5      12       3       1       5  # CT1  NH3  HC  
       6      17       3       1       4  # HC   NH3  HC  
       7      12       4       1       5  # CT1  NH3  HC  
       8       5       5       7      10  # CA   CT2  CT1 
       9      11       5       7       9  # CT1  CT2  HA2 
      10      11       5       7       8  # CT1  CT2  HA2 
      11       8       6       5      21  # CC   CT1  HB1 
      12      16       6       5       1  # HB1  CT1  NH3 
      13       2       7      10      13  # CA   CA   CT2 
      14       2       7      10      11  # CA   CA   CT2 
      15       7       7       5      21  # CC   CT1  CT2 
      16      14       7       5       1  # CT2  CT1  NH3 
      17      13       7       5       6  # CT2  CT1  HB1 
      18       6       8       7      10  # CA   CT2  HA2 
      19      15       8       7       9  # HA2  CT2  HA2 
      20       6       9       7      10  # CA   CT2  HA2 
      21       1      10      11      15  # CA   CA   CA  
      22       3      10      11      12  # CA   CA   HP  
      23       1      11      10      13  # CA   CA   CA  
      24       3      12      11      15  # CA   CA   HP  
      25       1      13      17      19  # CA   CA   CA  
      26       4      13      17      18  # CA   CA   OG312   
      27       3      14      13      10  # CA   CA   HP  
      28       3      14      13      17  # CA   CA   HP  
      29       1      15      19      17  # CA   CA   CA  
      30       4      15      19      20  # CA   CA   OG312   
      31       3      16      15      11  # CA   CA   HP  
      32       3      16      15      19  # CA   CA   HP  
      33       1      17      13      10  # CA   CA   CA  
      34       4      18      17      19  # CA   CA   OG312   
      35       1      19      15      11  # CA   CA   CA  
      36       4      20      19      17  # CA   CA   OG312   
      37      10      22      21       5  # CT1  CC   OC  
      38      10      23      21       5  # CT1  CC   OC  
      39      18      23      21      22  # OC   CC   OC  
      40       9      24      28      44  # CC   CT1  NH3 
      41      12      25      24      28  # CT1  NH3  HC  
      42      17      25      24      27  # HC   NH3  HC  
      43      17      25      24      26  # HC   NH3  HC  
      44      12      26      24      28  # CT1  NH3  HC  
      45      17      26      24      27  # HC   NH3  HC  
      46      12      27      24      28  # CT1  NH3  HC  
      47       5      28      30      33  # CA   CT2  CT1 
      48      11      28      30      32  # CT1  CT2  HA2 
      49      11      28      30      31  # CT1  CT2  HA2 
      50       8      29      28      44  # CC   CT1  HB1 
      51      16      29      28      24  # HB1  CT1  NH3 
      52       2      30      33      36  # CA   CA   CT2 
      53       2      30      33      34  # CA   CA   CT2 
      54       7      30      28      44  # CC   CT1  CT2 
      55      14      30      28      24  # CT2  CT1  NH3 
      56      13      30      28      29  # CT2  CT1  HB1 
      57       6      31      30      33  # CA   CT2  HA2 
      58      15      31      30      32  # HA2  CT2  HA2 
      59       6      32      30      33  # CA   CT2  HA2 
      60       1      33      34      38  # CA   CA   CA  
      61       3      33      34      35  # CA   CA   HP  
      62       1      34      33      36  # CA   CA   CA  
      63       3      35      34      38  # CA   CA   HP  
      64       1      36      40      42  # CA   CA   CA  
      65       4      36      40      41  # CA   CA   OG312   
      66       3      37      36      33  # CA   CA   HP  
      67       3      37      36      40  # CA   CA   HP  
      68       1      38      42      40  # CA   CA   CA  
      69       4      38      42      43  # CA   CA   OG312   
      70       3      39      38      34  # CA   CA   HP  
      71       3      39      38      42  # CA   CA   HP  
      72       1      40      36      33  # CA   CA   CA  
      73       4      41      40      42  # CA   CA   OG312   
      74       1      42      38      34  # CA   CA   CA  
      75       4      43      42      40  # CA   CA   OG312   
      76      10      45      44      28  # CT1  CC   OC  
      77      10      46      44      28  # CT1  CC   OC  
      78      18      46      44      45  # OC   CC   OC  

Dihedral Coeffs # charmm

       1              3.1                2              180              0.5  # CA   CA   CA   CA  
       2              3.1                2              180                1  # CA   CA   CA   CT2 
       3              4.2                2              180                1  # CA   CA   CA   HP  
       4              3.1                2              180                1  # CA   CA   CA   OG312   
       5             1.07                1                0                1  # CA   CA   CT2  CT1 
       6             0.24                2              180                0  # CA   CA   CT2  CT1 
       7             0.17                3              180                0  # CA   CA   CT2  CT1 
       8                0                6                0                1  # CA   CA   CT2  HA2 
       9             0.04                3                0                1  # CA   CT2  CT1  CC  
      10              0.2                3                0                1  # CA   CT2  CT1  HB1 
      11              0.2                3                0                1  # CA   CT2  CT1  NH3 
      12              0.2                3                0                1  # CC   CT1  CT2  HA2 
      13              0.1                3                0                1  # CC   CT1  NH3  HC  
      14              4.2                2              180                1  # CT2  CA   CA   HP  
      15             0.05                6              180                1  # CT2  CT1  CC   OC  
      16              0.1                3                0                1  # CT2  CT1  NH3  HC  
      17              0.2                3                0                1  # HA2  CT2  CT1  HB1 
      18              0.2                3                0                1  # HA2  CT2  CT1  NH3 
      19             0.05                6              180                1  # HB1  CT1  CC   OC  
      20              0.1                3                0                1  # HB1  CT1  NH3  HC  
      21              2.4                2              180                1  # HP   CA   CA   HP  
      22              2.4                2              180                1  # HP   CA   CA   OG312   
      23              3.2                2              180                1  # NH3  CT1  CC   OC  
      24           3.3808                2              180                1  # OG312    CA   CA   OG312   

Dihedrals

       1      18       1       5       7       8  # HA2  CT2  CT1  NH3 
       2      18       1       5       7       9  # HA2  CT2  CT1  NH3 
       3      11       1       5       7      10  # CA   CT2  CT1  NH3 
       4      23       1       5      21      23  # NH3  CT1  CC   OC  
       5      23       1       5      21      22  # NH3  CT1  CC   OC  
       6      16       2       1       5       7  # CT2  CT1  NH3  HC  
       7      20       2       1       5       6  # HB1  CT1  NH3  HC  
       8      13       2       1       5      21  # CC   CT1  NH3  HC  
       9      16       3       1       5       7  # CT2  CT1  NH3  HC  
      10      20       3       1       5       6  # HB1  CT1  NH3  HC  
      11      13       3       1       5      21  # CC   CT1  NH3  HC  
      12      16       4       1       5       7  # CT2  CT1  NH3  HC  
      13      20       4       1       5       6  # HB1  CT1  NH3  HC  
      14      13       4       1       5      21  # CC   CT1  NH3  HC  
      15       5       5       7      10      11  # CA   CA   CT2  CT1 
      16       6       5       7      10      11  # CA   CA   CT2  CT1 
      17       7       5       7      10      11  # CA   CA   CT2  CT1 
      18       5       5       7      10      13  # CA   CA   CT2  CT1 
      19       6       5       7      10      13  # CA   CA   CT2  CT1 
      20       7       5       7      10      13  # CA   CA   CT2  CT1 
      21      17       6       5       7       8  # HA2  CT2  CT1  HB1 
      22      17       6       5       7       9  # HA2  CT2  CT1  HB1 
      23      10       6       5       7      10  # CA   CT2  CT1  HB1 
      24      19       6       5      21      23  # HB1  CT1  CC   OC  
      25      19       6       5      21      22  # HB1  CT1  CC   OC  
      26      14       7      10      11      12  # CT2  CA   CA   HP  
      27       2       7      10      11      15  # CA   CA   CA   CT2 
      28      14       7      10      13      14  # CT2  CA   CA   HP  
      29       2       7      10      13      17  # CA   CA   CA   CT2 
      30      15       7       5      21      23  # CT2  CT1  CC   OC  
      31      15       7       5      21      22  # CT2  CT1  CC   OC  
      32      12       8       7       5      21  # CC   CT1  CT2  HA2 
      33       8       8       7      10      11  # CA   CA   CT2  HA2 
      34       8       8       7      10      13  # CA   CA   CT2  HA2 
      35      12       9       7       5      21  # CC   CT1  CT2  HA2 
      36       8       9       7      10      11  # CA   CA   CT2  HA2 
      37       8       9       7      10      13  # CA   CA   CT2  HA2 
      38       4      10      13      17      18  # CA   CA   CA   OG312   
      39       1      10      13      17      19  # CA   CA   CA   CA  
      40       3      10      11      15      16  # CA   CA   CA   HP  
      41       1      10      11      15      19  # CA   CA   CA   CA  
      42       9      10       7       5      21  # CA   CT2  CT1  CC  
      43       4      11      15      19      20  # CA   CA   CA   OG312   
      44       1      11      15      19      17  # CA   CA   CA   CA  
      45       3      11      10      13      14  # CA   CA   CA   HP  
      46       1      11      10      13      17  # CA   CA   CA   CA  
      47       3      12      11      10      13  # CA   CA   CA   HP  
      48      21      12      11      15      16  # HP   CA   CA   HP  
      49       3      12      11      15      19  # CA   CA   CA   HP  
      50       1      13      17      19      15  # CA   CA   CA   CA  
      51       4      13      17      19      20  # CA   CA   CA   OG312   
      52       1      13      10      11      15  # CA   CA   CA   CA  
      53      22      14      13      17      18  # HP   CA   CA   OG312   
      54       3      14      13      17      19  # CA   CA   CA   HP  
      55       4      15      19      17      18  # CA   CA   CA   OG312   
      56      22      16      15      19      20  # HP   CA   CA   OG312   
      57       3      16      15      19      17  # CA   CA   CA   HP  
      58      24      18      17      19      20  # OG312    CA   CA   OG312   
      59      18      24      28      30      31  # HA2  CT2  CT1  NH3 
      60      18      24      28      30      32  # HA2  CT2  CT1  NH3 
      61      11      24      28      30      33  # CA   CT2  CT1  NH3 
      62      23      24      28      44      46  # NH3  CT1  CC   OC  
      63      23      24      28      44      45  # NH3  CT1  CC   OC  
      64      16      25      24      28      30  # CT2  CT1  NH3  HC  
      65      20      25      24      28      29  # HB1  CT1  NH3  HC  
      66      13      25      24      28      44  # CC   CT1  NH3  HC  
      67      16      26      24      28      30  # CT2  CT1  NH3  HC  
      68      20      26      24      28      29  # HB1  CT1  NH3  HC  
      69      13      26      24      28      44  # CC   CT1  NH3  HC  
      70      16      27      24      28      30  # CT2  CT1  NH3  HC  
      71      20      27      24      28      29  # HB1  CT1  NH3  HC  
      72      13      27      24      28      44  # CC   CT1  NH3  HC  
      73       5      28      30      33      34  # CA   CA   CT2  CT1 
      74       6      28      30      33      34  # CA   CA   CT2  CT1 
      75       7      28      30      33      34  # CA   CA   CT2  CT1 
      76       5      28      30      33      36  # CA   CA   CT2  CT1 
      77       6      28      30      33      36  # CA   CA   CT2  CT1 
      78       7      28      30      33      36  # CA   CA   CT2  CT1 
      79      17      29      28      30      31  # HA2  CT2  CT1  HB1 
      80      17      29      28      30      32  # HA2  CT2  CT1  HB1 
      81      10      29      28      30      33  # CA   CT2  CT1  HB1 
      82      19      29      28      44      46  # HB1  CT1  CC   OC  
      83      19      29      28      44      45  # HB1  CT1  CC   OC  
      84      14      30      33      34      35  # CT2  CA   CA   HP  
      85       2      30      33      34      38  # CA   CA   CA   CT2 
      86      14      30      33      36      37  # CT2  CA   CA   HP  
      87       2      30      33      36      40  # CA   CA   CA   CT2 
      88      15      30      28      44      46  # CT2  CT1  CC   OC  
      89      15      30      28      44      45  # CT2  CT1  CC   OC  
      90      12      31      30      28      44  # CC   CT1  CT2  HA2 
      91       8      31      30      33      34  # CA   CA   CT2  HA2 
      92       8      31      30      33      36  # CA   CA   CT2  HA2 
      93      12      32      30      28      44  # CC   CT1  CT2  HA2 
      94       8      32      30      33      34  # CA   CA   CT2  HA2 
      95       8      32      30      33      36  # CA   CA   CT2  HA2 
      96       4      33      36      40      41  # CA   CA   CA   OG312   
      97       1      33      36      40      42  # CA   CA   CA   CA  
      98       3      33      34      38      39  # CA   CA   CA   HP  
      99       1      33      34      38      42  # CA   CA   CA   CA  
     100       9      33      30      28      44  # CA   CT2  CT1  CC  
     101       4      34      38      42      43  # CA   CA   CA   OG312   
     102       1      34      38      42      40  # CA   CA   CA   CA  
     103       3      34      33      36      37  # CA   CA   CA   HP  
     104       1      34      33      36      40  # CA   CA   CA   CA  
     105       3      35      34      33      36  # CA   CA   CA   HP  
     106      21      35      34      38      39  # HP   CA   CA   HP  
     107       3      35      34      38      42  # CA   CA   CA   HP  
     108       1      36      40      42      38  # CA   CA   CA   CA  
     109       4      36      40      42      43  # CA   CA   CA   OG312   
     110       1      36      33      34      38  # CA   CA   CA   CA  
     111      22      37      36      40      41  # HP   CA   CA   OG312   
     112       3      37      36      40      42  # CA   CA   CA   HP  
     113       4      38      42      40      41  # CA   CA   CA   OG312   
     114      22      39      38      42      43  # HP   CA   CA   OG312   
     115       3      39      38      42      40  # CA   CA   CA   HP  
     116      24      41      40      42      43  # OG312    CA   CA   OG312   

Improper Coeffs # harmonic

       1               96                0  # CC   CT1  OC   OC  

Impropers

       1       1      21       5      23      22  # CC   CT1  OC   OC  
       2       1      44      28      46      45  # CC   CT1  OC   OC  

