LAMMPS (3 Mar 2020)
  using 1 OpenMP thread(s) per MPI task
# Minimization and Equilibration of Bis-Catechol Iron Complex
# Using the CHARMM36 FF and CHARMM General Force Field

#### Setup

units           real 						# Set the style of units used for the simulation to real.
neigh_modify    every 1 delay 0 check yes 	# build a new neighbor list every 1 step after a delay of 0 steps.
boundary		p p p 						# Define periodic boundaries in all directions to accommodate deformation.

# Set styles.

atom_style      full 						# Sets per-atom attributes associated with an atom to molecular and charge (q).
bond_style      harmonic 					# Compute bonded interactions using a harmonic formula.
angle_style     charmm 						# Compute angle interactions between triplets of atoms using the charmm angle style.
dihedral_style  charmm 						# Compute dihedral interactions between quadruplets of atoms using the charmm dihedral style.
improper_style  harmonic 					# Compute improper interactions between quadruplets of atoms using a harmonic improper potential.
pair_style      lj/charmm/coul/long 8 12 	# Compute LJ and Coulombic interactions with an additional shifting or switching function that ramps the energy and/or force smoothly to zero between the specificed inner and outer cutoffs.
pair_modify     mix arithmetic 				# As is standard for the CHARMM force field, use geometric mixing rules for epsilon and arithmetic mixing rules for sigma in LJ potential calculation.
kspace_style    ewald 1e-4 					# standard Ewald summation for calculating long-range Coulombic or long-range 1/r^6 interactions.
special_bonds   charmm 						# Sets special bond interactions, which are those pairwise interactions to be computed between permanently bonded atoms, to 0, 0, and 0. This is the default for commonly used versions of the CHARMM force field.

#### Read Data File

read_data       bis_catechol_iron_complex.data 	# Read in a lammps data file.
  orthogonal box = (115.643 103.2 15.254) to (120.546 108.078 33.865)
  1 by 1 by 4 MPI processor grid
  reading atoms ...
  47 atoms
  scanning bonds ...
  4 = max bonds/atom
  scanning angles ...
  6 = max angles/atom
  scanning dihedrals ...
  13 = max dihedrals/atom
  scanning impropers ...
  1 = max impropers/atom
  reading bonds ...
  46 bonds
  reading angles ...
  78 angles
  reading dihedrals ...
  116 dihedrals
  reading impropers ...
  2 impropers
  4 = max # of 1-2 neighbors
  8 = max # of 1-3 neighbors
  14 = max # of 1-4 neighbors
  18 = max # of special neighbors
  special bonds CPU = 0.000610136 secs
  read_data CPU = 0.0268206 secs

#### Perform Energy Minimization

thermo 50 																		# Compute and print thermodynamic info (temperature, energy, and pressure) on timesteps that are a multiple of N.
thermo_style 	custom etotal ke temp pe ebond eangle density vol fmax fnorm 	# Specify which keywords are printed on each thermodynamic step.

minimize		1.0e-5 1.0e-6 100 1000 											# Perform an energy minimization of the system, by iteratively adjusting atom coordinates.
Ewald initialization ...
WARNING: System is not charge neutral, net charge = -1 (src/kspace.cpp:313)
  using 12-bit tables for long-range coulomb (src/kspace.cpp:332)
  G vector (1/distance) = 0.21201
  estimated absolute RMS force accuracy = 0.0351924
  estimated relative force accuracy = 0.000105981
  KSpace vectors: actual max1d max3d = 5 3 171
                  kxmax kymax kzmax  = 1 1 3
Neighbor list info ...
  update every 1 steps, delay 0 steps, check yes
  max neighbors/atom: 2000, page size: 100000
  master list distance cutoff = 14
  ghost atom cutoff = 14
  binsize = 7, bins = 1 1 3
  1 neighbor lists, perpetual/occasional/extra = 1 0 0
  (1) pair lj/charmm/coul/long, perpetual
      attributes: half, newton on
      pair build: half/bin/newton
      stencil: half/bin/3d/newton
      bin: standard
WARNING: Bond/angle/dihedral extent > half of periodic box length (src/domain.cpp:906)
Per MPI rank memory allocation (min/avg/max) = 20.27 | 20.43 | 20.67 Mbytes
TotEng KinEng Temp PotEng E_bond E_angle Density Volume Fmax Fnorm 
    26845683            0            0     26845683    179.84773    83.606073     1.664568     445.1162 6.3258122e+08 9.3212506e+08 
  -1820.9024            0            0   -1820.9024    8.6742631    36.772545     1.664568     445.1162    4.5533107    21.664607 
  -1822.6736            0            0   -1822.6736    8.7682329    31.771815     1.664568     445.1162     95.00635    126.89457 
WARNING: Bond/angle/dihedral extent > half of periodic box length (src/domain.cpp:906)
Loop time of 0.053211 on 4 procs for 63 steps with 47 atoms

98.8% CPU use with 4 MPI tasks x 1 OpenMP threads

Minimization stats:
  Stopping criterion = linesearch alpha is zero
  Energy initial, next-to-last, final = 
         26845682.7853     -1825.99235327     -1822.67356363
  Force two-norm initial, final = 9.32125e+08 126.895
  Force max component initial, final = 6.32581e+08 95.0063
  Final line search alpha, max atom move = 1.15974e-11 1.10182e-09
  Iterations, force evaluations = 63 170

MPI task timing breakdown:
Section |  min time  |  avg time  |  max time  |%varavg| %total
---------------------------------------------------------------
Pair    | 0.020704   | 0.027365   | 0.037943   |   4.2 | 51.43
Bond    | 0.00054705 | 0.00072055 | 0.00087899 |   0.0 |  1.35
Kspace  | 0.000665   | 0.011376   | 0.018204   |   6.6 | 21.38
Neigh   | 0.00089708 | 0.00089911 | 0.00090222 |   0.0 |  1.69
Comm    | 0.011507   | 0.011593   | 0.01165    |   0.1 | 21.79
Output  | 2.5448e-05 | 2.7533e-05 | 3.3662e-05 |   0.0 |  0.05
Modify  | 0          | 0          | 0          |   0.0 |  0.00
Other   |            | 0.001229   |            |       |  2.31

Nlocal:    11.75 ave 13 max 11 min
Histogram: 2 0 0 0 0 1 0 0 0 1
Nghost:    3813.75 ave 3877 max 3756 min
Histogram: 1 0 0 1 0 0 1 0 0 1
Neighs:    7112.25 ave 9719 max 5382 min
Histogram: 2 0 0 0 0 1 0 0 0 1

Total # of neighbors = 28449
Ave neighs/atom = 605.298
Ave special neighs/atom = 9.61702
Neighbor list builds = 3
Dangerous builds = 0
write_restart 	minimized.restart 												# Write a binary restart file of the current state of the simulation.
Ewald initialization ...
  using 12-bit tables for long-range coulomb (src/kspace.cpp:332)
  G vector (1/distance) = 0.21201
  estimated absolute RMS force accuracy = 0.0351924
  estimated relative force accuracy = 0.000105981
  KSpace vectors: actual max1d max3d = 5 3 171
                  kxmax kymax kzmax  = 1 1 3
write_data 		minimized.data 													# Write a data file in text format of the current state of the simulation.
Ewald initialization ...
  using 12-bit tables for long-range coulomb (src/kspace.cpp:332)
  G vector (1/distance) = 0.21201
  estimated absolute RMS force accuracy = 0.0351924
  estimated relative force accuracy = 0.000105981
  KSpace vectors: actual max1d max3d = 5 3 171
                  kxmax kymax kzmax  = 1 1 3

#### Perform a Simple Equilibration in NPT Ensemble

variable 		temperature equal 300
variable 		pressure equal 1

# Set initial velocities for all atoms except atom with fixed force.
velocity 		all create ${temperature} 543 dist gaussian loop local
velocity 		all create 300 543 dist gaussian loop local

# Apply an isobaric thermodynamic ensemble.
fix 			1 all npt temp ${temperature} ${temperature} 100.0 iso ${pressure} ${pressure} 1000
fix 			1 all npt temp 300 ${temperature} 100.0 iso ${pressure} ${pressure} 1000
fix 			1 all npt temp 300 300 100.0 iso ${pressure} ${pressure} 1000
fix 			1 all npt temp 300 300 100.0 iso 1 ${pressure} 1000
fix 			1 all npt temp 300 300 100.0 iso 1 1 1000

# Set the timestep.
timestep 		1.0

# Output a trajectory.
variable 		dumpfreq equal 10
dump 			1 all dcd ${dumpfreq} equil.dcd
dump 			1 all dcd 10 equil.dcd
run 10000
Ewald initialization ...
  using 12-bit tables for long-range coulomb (src/kspace.cpp:332)
  G vector (1/distance) = 0.21201
  estimated absolute RMS force accuracy = 0.0351924
  estimated relative force accuracy = 0.000105981
  KSpace vectors: actual max1d max3d = 5 3 171
                  kxmax kymax kzmax  = 1 1 3
WARNING: Bond/angle/dihedral extent > half of periodic box length (src/domain.cpp:906)
Per MPI rank memory allocation (min/avg/max) = 19.17 | 19.32 | 19.56 Mbytes
TotEng KinEng Temp PotEng E_bond E_angle Density Volume Fmax Fnorm 
  -1781.5167    41.135179          300   -1822.6519    8.7682329    31.771815     1.664568     445.1162     95.00635    127.21728 
  -1782.5772    38.296019    279.29393   -1820.8732    20.768234    55.467474    1.6831835    440.19332    47.629872    207.13956 
  -1778.5441    46.804122    341.34376   -1825.3482    17.195327    47.559467    1.7655649    419.65388    70.641621    238.81197 
  -1785.1254    55.969442     408.1867   -1841.0949    18.168421     48.79786    1.8630332    397.69884    109.80991    239.74261 
  -1796.3289    44.200503     322.3555   -1840.5294    16.532623    39.520974    1.9504826    379.86812    75.062777     209.7409 
  -1800.8699    43.522013    317.40725   -1844.3919    15.032065    39.090047    1.9665506    376.76435    46.354488    229.46885 
  -1804.6626    36.675454     267.4751   -1841.3381    20.459673    46.042147    1.9298844    383.92255    66.746141    230.57153 
  -1807.9955    44.976381    328.01399   -1852.9719    17.542304    46.559575    1.9047042    388.99801    54.379827    202.07444 
   -1813.939    37.063635    270.30612   -1851.0026    18.181602    43.244678    1.8751733     395.1241    62.046284    200.38181 
  -1814.8861    36.852065    268.76314   -1851.7382    19.752904      46.3106    1.8485399    400.81696    53.129051    199.64946 
  -1814.7514    35.241024    257.01376   -1849.9924     19.34158    46.041235    1.8384228    403.02272     95.85272    233.21585 
  -1813.1999    34.672393    252.86673   -1847.8723     20.93452    40.704065    1.8382454    403.06161    63.577076    224.29978 
  -1810.1607    33.729017    245.98666   -1843.8897    18.780894    46.662128    1.8558517     399.2378    63.518056    229.69237 
  -1805.3566    45.300464    330.37754    -1850.657    12.796516     46.25175    1.8944237      391.109    53.160525    210.22748 
  -1800.4865    38.698716    282.23081   -1839.1852    23.491121    53.043081    1.9182832     386.2444    62.588163    229.33045 
  -1797.4753    40.553783    295.75986    -1838.029    26.137917    46.351243    1.8970099    390.57579    104.13016    270.85956 
  -1796.7502    45.205361    329.68395   -1841.9555    20.930374    55.640717    1.8520668    400.05369    62.135986    239.07739 
  -1797.3506    52.795975    385.04251   -1850.1466    25.110527    42.818144    1.8043495    410.63338    61.635224    231.65414 
  -1797.7927    46.851592    341.68996   -1844.6443    22.388418    47.461143    1.7821952    415.73794    74.386696    258.18888 
   -1801.473    37.003037    269.86417   -1838.4761    21.723527    60.451377    1.7759167    417.20771    98.068856    262.87931 
  -1803.3151    43.432196    316.75221   -1846.7473    24.537314     50.03991    1.7756318    417.27467    60.218782    245.04465 
  -1805.3197    45.787436    333.92904   -1851.1072    19.140662    35.745788    1.8009339    411.41218    64.732108    238.52806 
  -1805.9883    41.079175    299.59156   -1847.0675    20.181138    45.212601    1.8404922    402.56957    59.444526    264.36251 
  -1805.4708    39.844015    290.58351   -1845.3148     22.40284    47.001366    1.8698477    396.24947    87.475619    260.45993 
  -1804.2355     45.56921    332.33752   -1849.8047    16.606239     36.80784    1.9042039    389.10022     73.94802    236.58633 
  -1805.5656    37.830324     275.8976   -1843.3959    21.101291    44.889382    1.9097683    387.96653    67.714704    252.80059 
  -1808.7432    36.822742    268.54928   -1845.5659    21.645541     52.42026    1.8779166    394.54689    78.689477    262.11211 
  -1813.6297    38.182076    278.46294   -1851.8118    26.315842    49.705641    1.8799052    394.12953    66.300603    245.37446 
  -1818.2554    40.336273    294.17356   -1858.5917     15.20573    35.999335    1.9096672    387.98706    68.115934    212.89588 
  -1820.4653    35.439273     258.4596   -1855.9045    20.004314    49.008479    1.9207629    385.74577    51.951916     226.6621 
  -1820.7028    32.682118    238.35159   -1853.3849    18.981363    42.077181    1.9073309    388.46231    61.858488    239.78944 
  -1816.3173    32.744881    238.80932   -1849.0622    16.624368    54.244388     1.871459    395.90829    68.543471    241.33021 
  -1806.7951    47.329205     345.1732   -1854.1243    28.019733    40.047289    1.8629926     397.7075    95.343971    232.03941 
   -1802.572    46.422101    338.55767   -1848.9941    16.707428    48.493361    1.8682717    396.58372    80.768527    217.33257 
  -1800.7797    39.043483     284.7452   -1839.8231    18.310446    66.655674    1.8559835    399.20945    81.156169    278.52131 
  -1801.4417    45.651325    332.93638    -1847.093    22.767914    48.307568    1.8368473    403.36839    77.978789    255.98812 
  -1801.9067    44.770745    326.51429   -1846.6775    20.401602    52.087636    1.8242911    406.14469    63.911781    226.53347 
  -1806.7946     43.27037    315.57201    -1850.065    16.733458    47.857853    1.8380367    403.10738    69.636348    224.06548 
  -1810.8983    43.039167    313.88584   -1853.9374    19.251929    44.374568    1.8509073    400.30431     59.03279    233.24355 
  -1813.9301    39.022766    284.59411   -1852.9528    19.414949    50.375439    1.8473519    401.07472    77.759643    231.63313 
  -1815.4491    37.032346    270.07793   -1852.4815    20.915616    45.162667    1.8548744    399.44815    67.222849    235.09085 
  -1815.2272    32.731138     238.7091   -1847.9583    17.429071     40.58568    1.8663909    396.98337    79.042603    236.43224 
  -1812.6567    34.608225    252.39875   -1847.2649    20.530337    44.455425     1.848094    400.91368     67.10068    232.00981 
  -1801.7756    39.580366    288.66071    -1841.356    19.693867    49.645995    1.8095569    409.45171     65.93075    236.05678 
  -1793.1332    46.010466    335.55561   -1839.1437    24.490183    44.405852    1.8010992    411.37443    59.921862    247.15817 
  -1793.3111    47.935215    349.59286   -1841.2463    22.812835    50.678192    1.8115052    409.01134    88.173251    269.12064 
  -1797.0869     41.88963    305.50223   -1838.9766    17.979929    52.953884    1.8241106    406.18488    67.004174    276.44524 
  -1802.0917    50.399785    367.56703   -1852.4915    22.173207    39.093696    1.8453281    401.51458     67.13869    239.27486 
  -1807.8748    36.346495      265.076   -1844.2213    26.393534    50.393492    1.8573379    398.91835     66.32681    249.41863 
  -1812.6298    42.804551    312.17478   -1855.4344     23.02666    45.330581    1.9042072    389.09955    59.889014    247.65452 
  -1812.8203    36.310915    264.81651   -1849.1312    17.340897    39.057674    1.9635129    377.34723    71.817787     253.2088 
  -1811.7006    38.450571    280.42108   -1850.1512    19.788661    40.824561    1.9621365    377.61194    70.704001    251.36806 
  -1809.9058    39.050859      284.799   -1848.9566     24.27117    48.641476    1.9250796    384.88078    59.652635    229.08194 
  -1805.7037    39.706067    289.57745   -1845.4098    20.727357    49.653958    1.8975069    390.47349    54.428111      225.859 
  -1802.5014    42.471474    309.74564   -1844.9729    22.622279     45.73407    1.8782766    394.47128    80.755444    256.69762 
  -1794.9588    51.203141    373.42593   -1846.1619    25.151242    41.060003    1.8531031    399.82997    97.553977    273.63752 
  -1789.1852    48.201163    351.53242   -1837.3864    24.790535    49.672879    1.8372588    403.27806    77.850076     269.3733 
  -1787.7718    51.763119    377.50986   -1839.5349    30.089741    43.622862    1.8624652    397.82014    85.226916    271.35568 
  -1791.4826    49.604514     361.7671   -1841.0871    24.125446    42.570717    1.8922687     391.5544     72.36769    269.87059 
  -1799.0954     50.87374     371.0236   -1849.9691    21.751111    40.008714    1.9131993    387.27076    75.219844    238.32735 
    -1804.83    37.693845    274.90226   -1842.5238    21.528127     52.23363    1.9196321      385.973    62.370434    269.98529 
  -1807.1658    36.192952    263.95621   -1843.3588    28.293729    49.525381    1.9075453    388.41863    87.616894    272.89678 
  -1809.8333    41.835994    305.11107   -1851.6693     22.21942    50.131757    1.8763444    394.87748    62.243989    230.38284 
  -1809.9533    43.366811    316.27536   -1853.3201    17.311405    44.724824    1.8147238    408.28592     77.61387    265.78111 
  -1805.2668    36.508653    266.25862   -1841.7754    27.267113     43.11778    1.7791399    416.45188    70.609085    259.33832 
  -1804.2072     48.19286    351.47187   -1852.4001    22.362002    47.885275    1.7858252    414.89288    51.710427    239.90354 
  -1802.9941    35.843215    261.40556   -1838.8373    20.629937    56.380616     1.816355    407.91924    60.177615    271.46715 
  -1800.2417    48.082899    350.66991   -1848.3246    19.601401     43.42603    1.8387201    402.95756    60.435042    245.05141 
  -1797.6191    50.255997    366.51838   -1847.8751    20.275399    52.467149    1.8310689    404.64134    63.929455    241.81214 
  -1797.6493    43.296307    315.76117   -1840.9456    26.261891      54.6943    1.8478562    400.96527    71.976917    289.89606 
   -1801.543    43.907477    320.21845   -1845.4504    25.635077    38.944198    1.8878557     392.4697     75.49327    273.05446 
  -1806.2903     46.34232    337.97582   -1852.6326    22.099482    45.680146    1.9191706    386.06581    57.634917    256.22448 
  -1812.3699    38.077665    277.70147   -1850.4475    16.460475    54.316333    1.9321736     383.4677     61.97951    250.78881 
  -1815.6346    37.985198     277.0271   -1853.6198    16.248231    45.832268     1.917943    386.31292     67.41329    228.08009 
  -1816.1245    43.970218    320.67602   -1860.0947    15.651248    41.942794    1.8988541    390.19646    68.291414    220.75115 
  -1815.4118     39.06458    284.89906   -1854.4764    15.878383    40.725952    1.8738077    395.41206      62.7014    239.18304 
  -1810.6206    39.346672    286.95637   -1849.9673    20.781649    35.335168     1.850788     400.3301    56.084519    225.08298 
  -1806.6195    45.997761    335.46295   -1852.6173    21.015184     37.78223    1.8603173    398.27945    56.296136    231.12492 
  -1801.2512    46.318178    337.79976   -1847.5694    18.249825    41.545566    1.8853863    392.98373    67.304238    252.02861 
  -1796.7729    35.449713    258.53574   -1832.2226    25.086575    39.717709    1.8970848    390.56037     68.20045    289.71767 
  -1796.5007    50.072548    365.18048   -1846.5732    18.987554    44.127019    1.8850498     393.0539    78.357682    257.27223 
  -1799.6701    52.084612    379.85452   -1851.7548    21.710227    46.652565    1.8716907    395.85928     65.09711    247.33055 
  -1801.8781    50.471105    368.08717   -1852.3492    25.337985    48.439858    1.8722175     395.7479     75.85875     279.6075 
  -1804.8411    40.495239     295.3329   -1845.3363    16.394041    46.861605    1.8689508    396.43963    75.493904     244.6098 
  -1808.4573    38.334819     279.5769   -1846.7921    25.302812    46.834918    1.8321847    404.39491    62.355762    264.62374 
  -1809.0698    38.115579    277.97798   -1847.1854    20.383485    51.803404    1.7980764      412.066    72.717367    253.79656 
  -1809.8759    45.700123    333.29227    -1855.576    13.271434    51.801447    1.7893489    414.07585    66.429059    234.61148 
  -1810.4869    39.865081    290.73714    -1850.352    25.605755    41.306964    1.7847707    415.13802    80.069154    246.79277 
  -1808.6022    40.355324     294.3125   -1848.9575    21.835592    42.494193    1.7912329    413.64032    76.000245    249.28609 
  -1808.2426    40.652553     296.4802   -1848.8951    17.556249    44.780322    1.8113522    409.04588    73.357102    253.31055 
  -1805.3913    44.129784    321.83974   -1849.5211    22.932799    44.756295    1.8310391    404.64791    68.530649    253.92959 
  -1803.3731    39.006359    284.47446   -1842.3794    17.966904    52.477691    1.8551803    399.38229    83.731076    239.74924 
  -1800.9793    45.231435    329.87411   -1846.2108    19.302199    51.113143     1.867657    396.71425    65.440123    259.22437 
  -1799.8079    45.880022    334.60428   -1845.6879    23.657075    49.485879    1.8631006    397.68447    68.286264    269.85598 
  -1800.1764    47.122726    343.66735   -1847.2991    26.210309    40.477062    1.8539262    399.65246     68.89789    258.46637 
  -1803.5212    44.124302    321.79976   -1847.6455    18.165369     48.81658    1.8578705    398.80399    62.205695    232.87196 
   -1807.097    36.711077     267.7349   -1843.8081    24.913841    43.397145    1.8701507    396.18528    92.289681    280.33187 
  -1812.2704    39.055508     284.8329   -1851.3259    18.902797    48.094233     1.857591      398.864    63.178978     254.4571 
  -1815.4335    40.219756     293.3238   -1855.6533    18.669543    47.950445    1.8349966    403.77522    61.485035    249.39224 
  -1817.3998    43.795783    319.40386   -1861.1956    19.942222    38.836809    1.8286926    405.16715     76.95173      211.097 
  -1817.6398     35.12654    256.17883   -1852.7663    16.250163    51.086495    1.8251858    405.94561    78.049748    239.84586 
  -1815.1492    39.246258    286.22405   -1854.3954    21.550445    41.793198    1.8338756    404.02205    86.610564    261.42839 
  -1808.2831         45.1    328.91555   -1853.3831    20.676004    41.425684    1.8418195    402.27947    76.379967    222.54309 
  -1800.2314    48.552794    354.09688   -1848.7842    22.118351    47.744754    1.8424502    402.14176    93.986458    278.43346 
  -1798.5655    40.177167     293.0132   -1838.7427    24.087025    52.918996    1.8331429    404.18353    91.599946    277.30823 
  -1798.1932    52.211696    380.78134   -1850.4049    21.521185    56.333761    1.8097694    409.40362    49.571924    238.31943 
  -1799.8696    43.741809    319.01023   -1843.6114    24.910442    46.271169     1.794421    412.90542    74.416065    279.03695 
  -1802.4536    43.529333    317.46064   -1845.9829    20.993086    55.347495    1.7947364    412.83287    71.830445    285.23918 
  -1807.6888     39.81785    290.39268   -1847.5066    19.972237    46.896341    1.8204431    407.00319    60.999235    246.81063 
  -1811.1922    42.964654    313.34242   -1854.1569    19.821953    44.849232    1.8440135    401.80083    53.040981    225.11415 
  -1813.5836    36.552937    266.58158   -1850.1365    19.559951    43.965944    1.8588665    398.59029    74.037525     251.9714 
  -1815.2984    39.057275    284.84579   -1854.3557    17.501975    43.886426    1.8696486    396.29166    74.264485    250.86169 
  -1815.3496     37.61759    274.34613   -1852.9672    12.709436    44.600495    1.8782481    394.47726    68.431406    239.48883 
   -1813.268    39.592226     288.7472   -1852.8602    20.619573    41.417113    1.8760475    394.93998    52.541563    214.96007 
  -1806.4307    42.206484    307.81306   -1848.6371    26.364529    46.592692    1.8631106    397.68233    67.264731    272.05475 
    -1799.57    38.616157    281.62871   -1838.1862    29.439744    45.049959    1.8431005    401.99986    77.922592     291.5825 
  -1796.5166    48.227993    351.72809   -1844.7446    23.274663    50.646291    1.8305623     404.7533    98.894607    295.39936 
  -1796.1686    47.596673    347.12386   -1843.7653     18.40334    38.963507    1.8190056    407.32484    78.894537    260.70972 
  -1798.5326    44.419579    323.95322   -1842.9522    23.055941    46.841752    1.8005862    411.49163    57.891504    277.83507 
  -1803.5417    43.312195    315.87704   -1846.8539    20.754386    50.215895    1.7858934    414.87703    78.440742    266.37194 
  -1808.6188    39.189735    285.81182   -1847.8086    26.500046     44.40027    1.7899052    413.94714    65.929111    280.15997 
  -1811.7697    34.031674    248.19394   -1845.8014    22.130053    43.167704    1.8059079    410.27904    71.145196    264.69581 
  -1812.7628    37.623305    274.38781   -1850.3861    20.523997    39.068695    1.8160037    407.99814    56.209401    256.15825 
  -1812.3464    44.179301    322.20087   -1856.5257    20.358698    44.727505    1.8173217    407.70226     77.22477    240.00072 
  -1809.5616    36.202142    264.02322   -1845.7638    20.075671    45.362862    1.8373867    403.24997    72.603191    265.50435 
  -1808.0325    38.496091    280.75306   -1846.5285    19.465036    54.540482     1.847252    401.09642    60.995514    243.62599 
  -1807.0985    37.159642     271.0063   -1844.2582    24.678691    43.566654    1.8284954    405.21083    60.296546    244.24242 
  -1805.9301    40.632774    296.33595   -1846.5629    16.574125    53.058513    1.8285822     405.1916    60.973187    239.96612 
  -1806.1767    38.674084    282.05117   -1844.8508    18.977908    46.357924    1.8518261    400.10568     71.67266    279.30044 
  -1805.9185    41.964999     306.0519   -1847.8835    21.680983    34.441076    1.8727691    395.63134    64.775083    269.84616 
  -1806.5626     45.17174    329.43876   -1851.7343    19.602707    38.363468    1.8965444    390.67166    68.000933    243.47506 
  -1807.3672    51.213649    373.50256   -1858.5809    18.437446    36.625532    1.9099353     387.9326    58.375969    232.02967 
  -1808.9384    46.360536    338.10867   -1855.2989    20.202341     42.25963    1.9102733    387.86395    41.826993    217.67875 
  -1811.9003    38.856741    283.38329    -1850.757     21.87374    45.922269    1.9210078    385.69658     65.98953    243.74438 
   -1815.151    36.611922    267.01177   -1851.7629    20.753142    46.556823    1.9198164    385.93594    51.709262    238.75815 
  -1818.8079    33.170577    241.91394   -1851.9784    22.753364    41.613389    1.8924345     391.5201    62.218075    247.22204 
  -1820.9544     35.38253    258.04578    -1856.337    15.827425     42.24297    1.8662271    397.01823    52.114807    204.77128 
  -1821.2392    37.308231    272.08997   -1858.5474    16.650817    38.830186    1.8532043    399.80814    56.098724    208.35183 
  -1818.1876     34.14835    249.04486   -1852.3359    19.327708    50.938349    1.8436217    401.88622    76.844583    242.89169 
  -1811.1979    37.432709    272.99779   -1848.6306    25.162563     44.20616    1.8461619    401.33325    79.351074    286.59231 
   -1806.091      41.3664    301.68631   -1847.4574    23.639769    44.133293    1.8577294    398.83427    88.097811    271.48952 
  -1803.6628    47.245616    344.56359   -1850.9084    21.639741    46.681879    1.8795697    394.19989    77.795749     273.1915 
  -1803.4723     42.30736    308.54875   -1845.7796    25.132544    41.828372    1.9051538    388.90621    96.213609    288.62969 
  -1803.9603    36.266153    264.49006   -1840.2264    15.629498    40.391307    1.9099396    387.93172    87.044285    287.17705 
  -1806.7146    42.115203    307.14734   -1848.8298    21.184704    49.860457    1.8725569    395.67618    75.937935    256.70606 
  -1807.1961    35.977364    262.38391   -1843.1734    27.781181    43.097058    1.8192505       407.27    86.279116    289.15288 
  -1808.3525    39.389294    287.26721   -1847.7418    21.002994    45.097084    1.7717487     418.1892    74.987298    269.26594 
  -1810.9864    42.273242    308.29993   -1853.2596    21.724077    48.230281      1.74803    423.86351     73.52059      246.293 
  -1813.4413    40.482132    295.23731   -1853.9234    22.164044    47.340566    1.7319798    427.79146     60.86091    232.23421 
  -1815.0187    31.459843    229.43751   -1846.4786    21.152732    50.003572    1.7306386    428.12298    76.240799    265.10102 
   -1814.865    37.398404     272.7476   -1852.2634    18.822277    44.890164    1.7469986    424.11377    63.891826    215.73355 
  -1810.5528    42.497426    309.93491   -1853.0502    17.588357    46.672517    1.7650993    419.76457      56.2974    221.47264 
  -1804.5302    44.107837    321.67968   -1848.6381    22.651045    50.566793    1.7978979    412.10692    80.270535     247.6333 
  -1801.9844    42.396062    309.19565   -1844.3805    16.248808    45.391681    1.8571008    398.96927     70.83773    278.44959 
  -1799.9454    44.917591    327.58524   -1844.8629    15.422179    47.008278     1.910288    387.86097    59.874421    241.88272 
  -1798.6595    50.848512    370.83961   -1849.5081    25.583232    40.852545    1.9341202    383.08175     73.54733    259.46274 
  -1800.9728    51.144735    372.99997   -1852.1176    16.712392     45.63168    1.9275615    384.38523    59.390172    233.69605 
  -1805.1055    43.024906    313.78184   -1848.1304    19.761915    36.602417    1.9020338    389.54415     88.09415    258.65351 
  -1808.9381    39.931337    291.22035   -1848.8694    25.613359     43.35952    1.8781402    394.49991    108.61593    289.18533 
  -1812.6281    32.001132    233.38515   -1844.6293    23.350597    46.924834    1.8797316    394.16593    78.336777    270.24873 
    -1813.54    36.234518    264.25935   -1849.7745    21.143893    45.188267    1.8804705    394.01105    88.544213    250.68493 
  -1812.3438    34.480234     251.4653   -1846.8241     26.63331    44.505693    1.8680016    396.64108    89.858751    258.83126 
  -1811.0262    34.263638    249.88566   -1845.2898    18.185653    51.690439    1.8697346    396.27343     94.14071    265.94547 
  -1809.2802    38.334174    279.57219   -1847.6143    24.966923    46.429428    1.8914654     391.7207    76.524531     278.9575 
  -1806.6215    38.451573    280.42839   -1845.0731    17.660979    52.118714    1.9137109    387.16723      81.0053    282.83541 
  -1804.0097    37.995744    277.10402   -1842.0054    20.712506    42.453148    1.9056594    388.80303    87.733246     295.6298 
  -1802.0969    40.864899    298.02884   -1842.9618    28.790306    41.546949      1.87125    395.95252    101.10483    298.96131 
  -1799.0691    35.780999    260.95182   -1834.8501    19.590331    49.758829    1.8343237    403.92335    82.256424    329.41208 
   -1799.716    42.918157    313.00331   -1842.6342    23.926194    43.714421    1.7859099    414.87319    75.825523    288.22825 
  -1795.4668     42.74124    311.71305    -1838.208    25.979719    42.704064    1.7555576    422.04606    90.040525    293.21396 
  -1793.0299    37.408789    272.82333   -1830.4387    24.682242    52.753804    1.7675478    419.18309    79.138478    297.88281 
  -1791.0081    46.720558    340.73432   -1837.7287    27.122367    42.994211    1.7741911    417.61351    86.722013    294.95505 
  -1793.1613    44.686398    325.89914   -1837.8477    20.880725    48.936869    1.7814538    415.91095    94.225644    306.25672 
  -1799.2559    41.078539    299.58693   -1840.3344    21.232805    44.275757    1.7975802    412.17976    72.963072    278.83054 
  -1806.6956    38.252616    278.97739   -1844.9482    26.173326    51.058214    1.8272176    405.49421    84.345847    303.16108 
  -1811.4399     41.93208    305.81183   -1853.3719    18.913585    33.274057    1.8660458    397.05679    66.921333    240.97427 
  -1813.1546    35.553818    259.29498   -1848.7084    20.973791    48.930186    1.9026628    389.41537     93.01845    279.52935 
  -1812.7053    36.091868      263.219   -1848.7971    20.423996     43.86575    1.9055387    388.82766    103.78341    272.73229 
  -1811.3498    33.525049    244.49911   -1844.8749    17.906776      41.8635    1.8836982    393.33592    81.813338     287.4781 
  -1809.3846     34.06658    248.44851   -1843.4512    21.853338    43.533443    1.8672188    396.80735    62.432385    260.25301 
  -1805.0556    45.026756    328.38138   -1850.0823    19.919933    51.557647    1.8596938    398.41298    52.642192    216.64437 
   -1797.455    52.768385     384.8413   -1850.2234    17.438121    41.682686    1.8626552    397.77955     62.87235    255.03814 
   -1791.736    46.230353    337.15925   -1837.9664    27.240383    49.305039    1.8586191    398.64336    76.502549    278.19022 
  -1791.2066    48.900416    356.63209    -1840.107    24.583092    45.123901    1.8492935    400.65363    75.101693    273.89666 
  -1794.5049    48.827773    356.10231   -1843.3327    24.895251    48.054969    1.8460402    401.35971    54.197027    255.10653 
  -1800.2501    33.702307    245.79186   -1833.9524    28.722598    44.557627    1.8546772    399.49062    76.708165    316.74755 
  -1803.8183    39.161931    285.60905   -1842.9802    18.703353    45.767186    1.8703289    396.14753    67.481822    278.07496 
  -1803.4118    41.858372    305.27427   -1845.2702    22.175172    44.543091    1.8706291    396.08395    69.227212    279.89601 
  -1804.8911    45.208611    329.70765   -1850.0997     20.63685    41.753911    1.8695447    396.31369    64.155798    233.97342 
  -1806.9716    44.838563    327.00888   -1851.8102    13.112907    43.334157    1.8845905    393.14969    62.908208     237.6796 
  -1808.9224    40.321055    294.06258   -1849.2434    18.542357    40.037277    1.8815704    393.78072    57.119191    233.60029 
  -1810.6472     40.17768    293.01693   -1850.8249    15.799016    45.216049    1.8690992    396.40815    80.698244    246.63522 
  -1812.1766    28.492947    207.79985   -1840.6696    19.249769    54.137455    1.8530336    399.84496    59.154399    259.97193 
  -1813.8837    38.358277    279.74798    -1852.242    19.081937    41.428863    1.8531068    399.82917    86.656225      256.037 
  -1814.7187    31.335193    228.52843   -1846.0538    16.284505    47.615871    1.8574696    398.89005    78.542791    281.76961 
   -1813.358    39.978963    291.56768   -1853.3369    19.425947    45.426077      1.85873    398.61956    66.768621    250.15639 
  -1810.1301    39.997593    291.70356   -1850.1277    21.890419    48.973889     1.867182    396.81518    72.940738    265.52558 
  -1805.0057    43.430056     316.7366   -1848.4358    18.885154    50.212736    1.8608398    398.16763    79.130741     287.6387 
  -1800.4351    48.031711     350.2966   -1848.4668    19.947933    51.015628    1.8382134    403.06863     69.89259    255.29681 
  -1798.7339    46.971015    342.56092   -1845.7049    27.053232    50.186747    1.7998903    411.65073    94.955932    277.39979 
  -1799.4613    41.883531    305.45775   -1841.3449    19.086221    48.426481    1.7665664    419.41598    84.238927    262.07598 
  -1800.2399     40.38686    294.54249   -1840.6268    20.590096    45.126257    1.7613501    420.65809    84.402028    266.56397 
WARNING: Bond/angle/dihedral extent > half of periodic box length (src/domain.cpp:906)
Loop time of 2.82325 on 4 procs for 10000 steps with 47 atoms

Performance: 306.030 ns/day, 0.078 hours/ns, 3542.015 timesteps/s
99.0% CPU use with 4 MPI tasks x 1 OpenMP threads

MPI task timing breakdown:
Section |  min time  |  avg time  |  max time  |%varavg| %total
---------------------------------------------------------------
Pair    | 1.0747     | 1.4022     | 1.9222     |  29.4 | 49.67
Bond    | 0.039633   | 0.048714   | 0.058283   |   3.7 |  1.73
Kspace  | 0.044927   | 0.56908    | 0.89718    |  46.3 | 20.16
Neigh   | 0.016596   | 0.016669   | 0.016752   |   0.0 |  0.59
Comm    | 0.61071    | 0.61706    | 0.62308    |   0.6 | 21.86
Output  | 0.060537   | 0.067297   | 0.084018   |   3.7 |  2.38
Modify  | 0.056052   | 0.074307   | 0.082712   |   3.9 |  2.63
Other   |            | 0.02789    |            |       |  0.99

Nlocal:    11.75 ave 13 max 11 min
Histogram: 2 0 0 0 0 1 0 0 0 1
Nghost:    4079.75 ave 4182 max 3978 min
Histogram: 2 0 0 0 0 0 0 0 0 2
Neighs:    7829.5 ave 10611 max 6024 min
Histogram: 2 0 0 0 0 1 0 0 0 1

Total # of neighbors = 31318
Ave neighs/atom = 666.34
Ave special neighs/atom = 9.61702
Neighbor list builds = 48
Dangerous builds = 0

# Output a restart and data file.
write_restart 	equilibrated.restart
Ewald initialization ...
  using 12-bit tables for long-range coulomb (src/kspace.cpp:332)
  G vector (1/distance) = 0.212473
  estimated absolute RMS force accuracy = 0.0346028
  estimated relative force accuracy = 0.000104205
  KSpace vectors: actual max1d max3d = 5 3 171
                  kxmax kymax kzmax  = 1 1 3
write_data 		equilibrated.data
Ewald initialization ...
  using 12-bit tables for long-range coulomb (src/kspace.cpp:332)
  G vector (1/distance) = 0.212473
  estimated absolute RMS force accuracy = 0.0346028
  estimated relative force accuracy = 0.000104205
  KSpace vectors: actual max1d max3d = 5 3 171
                  kxmax kymax kzmax  = 1 1 3
Total wall time: 0:00:03
