LAMMPS data file via write_data, version 3 Mar 2020, timestep = 10063

47 atoms
12 atom types
46 bonds
11 bond types
78 angles
18 angle types
116 dihedrals
24 dihedral types
2 impropers
1 improper types

1.1568874989548850e+02 1.2050025010451149e+02 xlo xhi
1.0324551662047543e+02 1.0803248337952458e+02 ylo yhi
1.5427659250443986e+01 3.3691340749555849e+01 zlo zhi

Masses

1 1.008
2 1.008
3 1.008
4 1.008
5 12.011
6 12.011
7 12.011
8 12.011
9 14.007
10 15.9994
11 55.845
12 15.9994

Pair Coeffs # lj/charmm/coul/long

1 0.046 0.400014 0.046 0.400014
2 0.03 2.42004 0.03 2.42004
3 0.022 2.35197 0.022 2.35197
4 0.034 2.38761 0.034 2.38761
5 0.07 3.55005 0.07 3.55005
6 0.032 3.56359 0.01 3.38542
7 0.056 3.58141 0.01 3.38542
8 0.07 3.56359 0.07 3.56359
9 0.2 3.29633 0.2 3.29633
10 0.12 3.02906 0.12 3.02906
11 0.1252 1.00903 0.1252 1.00903
12 0.12 3.11815 0.12 3.11815

Bond Coeffs # harmonic

1 305 1.375
2 230 1.49
3 340 1.08
4 525 1.26
5 200 1.522
6 525 1.26
7 222.5 1.538
8 330 1.08
9 200 1.48
10 309 1.111
11 403 1.04

Angle Coeffs # charmm

1 40 120 35 2.4162
2 45.8 122.3 0 0
3 30 120 22 2.1525
4 40 120 0 0
5 51.8 107.5 0 0
6 49.3 107.5 0 0
7 52 108 0 0
8 50 109.5 0 0
9 43.7 110 0 0
10 40 118 50 2.388
11 26.5 110.1 22.53 2.179
12 30 109.5 20 2.074
13 35 111 0 0
14 67.7 110 0 0
15 35.5 109 5.4 1.802
16 51.5 107.5 0 0
17 44 109.5 0 0
18 100 124 70 2.225

Dihedral Coeffs # charmm

1 3.1 2 180 0.5
2 3.1 2 180 1
3 4.2 2 180 1
4 3.1 2 180 1
5 1.07 1 0 1
6 0.24 2 180 0
7 0.17 3 180 0
8 0 6 0 1
9 0.04 3 0 1
10 0.2 3 0 1
11 0.2 3 0 1
12 0.2 3 0 1
13 0.1 3 0 1
14 4.2 2 180 1
15 0.05 6 180 1
16 0.1 3 0 1
17 0.2 3 0 1
18 0.2 3 0 1
19 0.05 6 180 1
20 0.1 3 0 1
21 2.4 2 180 1
22 2.4 2 180 1
23 3.2 2 180 1
24 3.3808 2 180 1

Improper Coeffs # harmonic

1 96 0

Atoms # full

46 2 10 -6.7000000000000004e-01 1.1948106874838810e+02 1.0767773830404133e+02 1.7955938911818720e+01 0 0 0
24 2 9 -2.9999999999999999e-01 1.1819877768104593e+02 1.0409914148696610e+02 1.7189556925641686e+01 0 0 0
25 2 1 3.3000000000000002e-01 1.1808232124920966e+02 1.0350210605170982e+02 1.8009676014294214e+01 0 0 0
26 2 1 3.3000000000000002e-01 1.1897605435353550e+02 1.0360403750295244e+02 1.6706256151189400e+01 0 0 0
27 2 1 3.3000000000000002e-01 1.1732062342102989e+02 1.0399592526665768e+02 1.6663915066923831e+01 0 0 0
28 2 6 2.0999999999999999e-01 1.1855082526615253e+02 1.0552609537965071e+02 1.7848439280416180e+01 0 0 0
29 2 3 1.0000000000000001e-01 1.1954176237590762e+02 1.0531430839394586e+02 1.8249520207541345e+01 0 0 0
30 2 7 -1.8200000000000000e-01 1.1752643478494365e+02 1.0560198316563324e+02 1.9021913536994596e+01 0 0 0
31 2 4 8.9999999999999997e-02 1.1709157302573655e+02 1.0458195998977463e+02 1.9237748158972721e+01 0 0 0
32 2 4 8.9999999999999997e-02 1.1667887392452408e+02 1.0626071623878714e+02 1.8708763443319732e+01 0 0 0
45 2 10 -6.7000000000000004e-01 1.1789275621894268e+02 1.0749837767532276e+02 1.6477240643287196e+01 0 0 0
44 2 8 3.4000000000000002e-01 1.1869852444545626e+02 1.0692719901423095e+02 1.7316631258528016e+01 0 0 0
33 2 5 -5.0000000000000001e-03 1.1797209698603342e+02 1.0604789592949462e+02 2.0423889650200412e+01 0 0 0
34 2 5 -1.1799999999999999e-01 1.1725418166599893e+02 1.0719971628753063e+02 2.0984604450243324e+01 0 0 0
36 2 5 -6.0199999999999998e-01 1.1874552536060146e+02 1.0529834264902316e+02 2.1346773192952107e+01 0 0 0
37 2 2 2.8000000000000003e-01 1.1916133187901683e+02 1.0434418078801626e+02 2.0972669614910988e+01 0 0 0
38 2 5 -5.9099999999999997e-01 1.1742494708262558e+02 1.0751942088423549e+02 2.2388691285759688e+01 0 0 0
39 2 2 2.8000000000000003e-01 1.1684633299334115e+02 1.0362347937418886e+02 2.2771043481371080e+01 0 1 0
40 2 5 8.7999999999999995e-02 1.1884881227554541e+02 1.0564162611555641e+02 2.2692647850835868e+01 0 0 0
41 2 12 -7.6400000000000001e-01 1.1914736401932296e+02 1.0471999463695582e+02 2.3527799913332018e+01 0 0 0
42 2 5 8.0000000000000002e-02 1.1820301243903849e+02 1.0675249615948449e+02 2.3162849835710205e+01 0 0 0
43 2 12 -7.6100000000000001e-01 1.1804122202318813e+02 1.0679066940428164e+02 2.4401069766285932e+01 0 0 0
35 2 2 1.1500000000000000e-01 1.1647432459871519e+02 1.0774645414476896e+02 2.0468832514807598e+01 0 0 0
13 1 5 -6.0199999999999998e-01 1.1859116294172929e+02 1.0525197911479202e+02 2.8106650841544635e+01 0 0 0
14 1 2 2.8000000000000003e-01 1.1944102816488649e+02 1.0576861951470040e+02 2.8409556370573686e+01 0 0 0
15 1 5 -5.9099999999999997e-01 1.1633529521189843e+02 1.0395127367754478e+02 2.7159030312285743e+01 0 0 0
16 1 2 2.8000000000000003e-01 1.2039631395825782e+02 1.0346118717294057e+02 2.6619236153003534e+01 -1 0 0
17 1 5 8.7999999999999995e-02 1.1847171026690940e+02 1.0498464617022535e+02 2.6779164337156899e+01 0 0 0
18 1 12 -7.6400000000000001e-01 1.1930433333336214e+02 1.0539924965711749e+02 2.5895911175483420e+01 0 0 0
19 1 5 8.0000000000000002e-02 1.1728455410051696e+02 1.0442930683408429e+02 2.6324228106597328e+01 0 0 0
20 1 12 -7.6100000000000001e-01 1.1720831917465827e+02 1.0458825440283307e+02 2.5099725126844728e+01 0 0 0
47 3 11 3.0000000000000000e+00 1.1841834892136008e+02 1.0533956452826361e+02 2.4691654282670591e+01 0 0 0
11 1 5 -1.1799999999999999e-01 1.1664597523314113e+02 1.0399115210169694e+02 2.8539719497275279e+01 0 0 0
10 1 5 -5.0000000000000001e-03 1.1768805278287348e+02 1.0471036840575698e+02 2.9040555302325462e+01 0 0 0
1 1 9 -2.9999999999999999e-01 1.1640058252405076e+02 1.0363016501625025e+02 3.2013436046233750e+01 0 0 0
2 1 1 3.3000000000000002e-01 1.1585280345429763e+02 1.0382097091942029e+02 3.1223436615930549e+01 0 0 0
3 1 1 3.3000000000000002e-01 1.1622447548300953e+02 1.0426812501545446e+02 3.2788913569552761e+01 0 0 0
4 1 1 3.3000000000000002e-01 1.1616126847771349e+02 1.0743740744813284e+02 3.2344563211196387e+01 0 -1 0
5 1 6 2.0999999999999999e-01 1.1773983985060161e+02 1.0357197168314006e+02 3.1261226898047560e+01 0 0 0
6 1 3 1.0000000000000001e-01 1.1749063909959291e+02 1.0752205881621614e+02 3.0584476971891593e+01 0 -1 0
7 1 7 -1.8200000000000000e-01 1.1786207468493764e+02 1.0488851550504359e+02 3.0482647698694887e+01 0 0 0
8 1 4 8.9999999999999997e-02 1.1888584449130065e+02 1.0530292753295869e+02 3.0587940238472317e+01 0 0 0
9 1 4 8.9999999999999997e-02 1.1722531821121866e+02 1.0569680622603913e+02 3.0837333369923382e+01 0 0 0
22 1 10 -6.7000000000000004e-01 1.1955172633431985e+02 1.0398156373881463e+02 3.2900510713172082e+01 0 0 0
23 1 10 -6.7000000000000004e-01 1.1995429984884704e+02 1.0729111542518901e+02 3.1415280972352722e+01 0 -1 0
12 1 2 1.1500000000000000e-01 1.1595930403344693e+02 1.0341492668472016e+02 2.9209651071448441e+01 0 0 0
21 1 8 3.4000000000000002e-01 1.1914672704384878e+02 1.0802259698022787e+02 3.1995157745438306e+01 0 -1 0

Velocities

46 1.2415836837077351e-03 -1.6987583223642827e-03 2.9594346693825381e-03
24 -3.9892577882786190e-03 -3.4601816866512854e-03 -7.4315107580934811e-04
25 -1.2518319028941795e-02 -2.5983807560515586e-03 -1.1798204566953076e-02
26 1.0254969511722032e-02 -1.8215627166597626e-02 3.7670445718883086e-03
27 -8.8906233526205736e-03 -9.6012860130844455e-03 1.0124103492010626e-02
28 7.4354935200811410e-04 -2.5416582747270211e-03 5.6898520820812667e-03
29 3.4902364982053728e-02 7.9985594347135695e-03 9.0196854744182826e-04
30 -4.1297394052867129e-04 -4.4534507668059957e-03 9.3928352468872073e-03
31 -9.3491222331404927e-03 -1.8875401769973616e-02 2.0869303303349115e-02
32 -6.1789849206839052e-03 -1.3231570256026072e-02 -6.2485682104685171e-03
45 -9.1611196031585185e-04 3.7484361034854966e-03 5.7152378516756447e-03
44 -2.5235042439652485e-04 5.3644998438321994e-03 3.2404888938725638e-03
33 -1.8559931154766554e-03 -1.0279395880807233e-03 1.5206517548128791e-03
34 1.8025704115427878e-03 7.4340602002143825e-03 -4.5566481034855465e-03
36 -3.9051584735384686e-03 -4.2612077365364082e-04 -3.2520930603346836e-03
37 -4.5494527220702949e-03 1.1666015230733138e-03 2.7522155857161298e-03
38 1.4939869027763828e-03 -1.0742312749372212e-02 2.8696630609213471e-03
39 -4.2733485954601306e-03 -1.5233070310177519e-02 -2.1189801067715255e-02
40 -1.1751513349693356e-03 2.9071391914213185e-03 -4.9794608924113074e-04
41 1.3266672486916169e-03 4.0949979696894194e-03 8.9784612057359299e-04
42 -1.8318127003487444e-03 -2.2105071550246381e-03 -1.9994360767737099e-04
43 3.4812730499146206e-03 -2.8843835974281147e-03 7.6004046559188809e-04
35 3.0309132869981794e-02 2.3016323440700924e-03 -1.1618300616399185e-02
13 -7.4009334011010961e-03 -7.7587885351128125e-03 7.8003519557098824e-03
14 3.4031944370474594e-03 9.6252169880711464e-03 4.2178841601830021e-03
15 1.0104240040659999e-03 -5.4102197140902478e-03 -1.7185192062209890e-03
16 4.4092709354036579e-02 -2.1460095270385638e-03 6.5435658693213999e-03
17 4.0380803367237377e-03 -4.6400052924272820e-03 -1.4466733887790186e-03
18 8.7126010617082279e-04 5.1975625296075299e-03 7.9815044680484198e-03
19 6.0956593382950246e-03 -1.6762481715277984e-03 -1.0009165828054211e-02
20 -1.4975165311839538e-04 -1.6125644460809543e-04 -2.6659170162820094e-03
47 4.4687913621665386e-04 5.2682471020242807e-03 7.7967129348323122e-04
11 -4.2075621937313502e-03 1.2855329784776863e-03 -1.4413122774884089e-03
10 4.1916667912715042e-03 -5.8072318550081705e-03 -1.0533717010185581e-03
1 -7.9035677220069718e-03 5.2813488634132098e-03 8.1196012408901372e-04
2 -1.4635094031138451e-02 -2.2482834494432870e-02 -1.7716141986564338e-02
3 -6.7077198391433390e-03 -2.3672055410224928e-02 -4.2912751143886214e-04
4 -1.3360480325353755e-03 2.3257988853594445e-02 -1.1563628045411726e-02
5 8.5253585191443996e-03 -4.3407923962750731e-03 -4.0507019469105798e-03
6 3.4825215531675948e-03 2.7560315195146757e-05 1.5221619249067271e-02
7 2.7021750389776386e-03 3.4055299874925669e-03 -2.7974383187050252e-03
8 6.0644788510655287e-03 -5.6467020748143856e-03 -1.2500958076341296e-02
9 -1.7874490142141139e-02 -1.4786082405921833e-02 2.1814640083506519e-03
22 2.7799053793043107e-03 2.7947810580634018e-03 -9.2812602876966438e-03
23 -1.0826076241692519e-02 -8.5159487564887568e-05 -4.3819209374520345e-03
12 -2.2574199941815080e-03 -5.7121460034659432e-03 -8.1222140578472591e-03
21 1.4613001529071284e-03 -1.5920310709303445e-03 -2.9350522397825064e-03

Bonds

1 9 24 28
2 11 25 24
3 11 26 24
4 11 27 24
5 8 28 29
6 7 30 28
7 10 30 31
8 10 30 32
9 2 30 33
10 6 44 46
11 6 44 45
12 5 44 28
13 1 33 34
14 3 34 35
15 3 36 37
16 1 36 40
17 1 36 33
18 3 38 39
19 1 38 42
20 1 38 34
21 4 40 41
22 1 40 42
23 4 42 43
24 3 13 14
25 1 13 17
26 1 13 10
27 3 15 16
28 1 15 19
29 1 15 11
30 4 17 18
31 1 17 19
32 4 19 20
33 3 11 12
34 1 10 11
35 9 1 5
36 11 2 1
37 11 3 1
38 11 4 1
39 8 5 6
40 7 7 5
41 10 7 8
42 10 7 9
43 2 7 10
44 6 21 23
45 6 21 22
46 5 21 5

Angles

1 12 25 24 28
2 17 25 24 27
3 17 25 24 26
4 12 26 24 28
5 17 26 24 27
6 12 27 24 28
7 9 24 28 44
8 8 29 28 44
9 16 29 28 24
10 7 30 28 44
11 14 30 28 24
12 13 30 28 29
13 5 28 30 33
14 11 28 30 32
15 11 28 30 31
16 6 31 30 33
17 15 31 30 32
18 6 32 30 33
19 10 45 44 28
20 10 46 44 28
21 18 46 44 45
22 2 30 33 36
23 2 30 33 34
24 1 34 33 36
25 1 33 34 38
26 3 33 34 35
27 3 35 34 38
28 3 37 36 33
29 3 37 36 40
30 1 40 36 33
31 3 39 38 34
32 3 39 38 42
33 1 42 38 34
34 1 36 40 42
35 4 36 40 41
36 4 41 40 42
37 1 38 42 40
38 4 38 42 43
39 4 43 42 40
40 3 14 13 10
41 3 14 13 17
42 1 17 13 10
43 3 16 15 11
44 3 16 15 19
45 1 19 15 11
46 1 13 17 19
47 4 13 17 18
48 4 18 17 19
49 1 15 19 17
50 4 15 19 20
51 4 20 19 17
52 1 10 11 15
53 3 10 11 12
54 3 12 11 15
55 2 7 10 13
56 2 7 10 11
57 1 11 10 13
58 12 2 1 5
59 17 2 1 4
60 17 2 1 3
61 12 3 1 5
62 17 3 1 4
63 12 4 1 5
64 9 1 5 21
65 8 6 5 21
66 16 6 5 1
67 7 7 5 21
68 14 7 5 1
69 13 7 5 6
70 5 5 7 10
71 11 5 7 9
72 11 5 7 8
73 6 8 7 10
74 15 8 7 9
75 6 9 7 10
76 10 22 21 5
77 10 23 21 5
78 18 23 21 22

Dihedrals

1 16 25 24 28 30
2 20 25 24 28 29
3 13 25 24 28 44
4 16 26 24 28 30
5 20 26 24 28 29
6 13 26 24 28 44
7 16 27 24 28 30
8 20 27 24 28 29
9 13 27 24 28 44
10 18 24 28 30 31
11 18 24 28 30 32
12 11 24 28 30 33
13 23 24 28 44 46
14 23 24 28 44 45
15 17 29 28 30 31
16 17 29 28 30 32
17 10 29 28 30 33
18 19 29 28 44 46
19 19 29 28 44 45
20 15 30 28 44 46
21 15 30 28 44 45
22 5 28 30 33 34
23 6 28 30 33 34
24 7 28 30 33 34
25 5 28 30 33 36
26 6 28 30 33 36
27 7 28 30 33 36
28 12 31 30 28 44
29 8 31 30 33 34
30 8 31 30 33 36
31 12 32 30 28 44
32 8 32 30 33 34
33 8 32 30 33 36
34 9 33 30 28 44
35 14 30 33 34 35
36 2 30 33 34 38
37 14 30 33 36 37
38 2 30 33 36 40
39 3 34 33 36 37
40 1 34 33 36 40
41 1 36 33 34 38
42 3 33 34 38 39
43 1 33 34 38 42
44 3 35 34 33 36
45 21 35 34 38 39
46 3 35 34 38 42
47 4 33 36 40 41
48 1 33 36 40 42
49 22 37 36 40 41
50 3 37 36 40 42
51 4 34 38 42 43
52 1 34 38 42 40
53 22 39 38 42 43
54 3 39 38 42 40
55 1 36 40 42 38
56 4 36 40 42 43
57 24 41 40 42 43
58 4 38 42 40 41
59 4 10 13 17 18
60 1 10 13 17 19
61 22 14 13 17 18
62 3 14 13 17 19
63 4 11 15 19 20
64 1 11 15 19 17
65 22 16 15 19 20
66 3 16 15 19 17
67 1 13 17 19 15
68 4 13 17 19 20
69 24 18 17 19 20
70 4 15 19 17 18
71 3 10 11 15 16
72 1 10 11 15 19
73 3 12 11 10 13
74 21 12 11 15 16
75 3 12 11 15 19
76 14 7 10 11 12
77 2 7 10 11 15
78 14 7 10 13 14
79 2 7 10 13 17
80 3 11 10 13 14
81 1 11 10 13 17
82 1 13 10 11 15
83 16 2 1 5 7
84 20 2 1 5 6
85 13 2 1 5 21
86 16 3 1 5 7
87 20 3 1 5 6
88 13 3 1 5 21
89 16 4 1 5 7
90 20 4 1 5 6
91 13 4 1 5 21
92 18 1 5 7 8
93 18 1 5 7 9
94 11 1 5 7 10
95 23 1 5 21 23
96 23 1 5 21 22
97 17 6 5 7 8
98 17 6 5 7 9
99 10 6 5 7 10
100 19 6 5 21 23
101 19 6 5 21 22
102 15 7 5 21 23
103 15 7 5 21 22
104 5 5 7 10 11
105 6 5 7 10 11
106 7 5 7 10 11
107 5 5 7 10 13
108 6 5 7 10 13
109 7 5 7 10 13
110 12 8 7 5 21
111 8 8 7 10 11
112 8 8 7 10 13
113 12 9 7 5 21
114 8 9 7 10 11
115 8 9 7 10 13
116 9 10 7 5 21

Impropers

1 1 44 28 46 45
2 1 21 5 23 22
