LAMMPS data file via write_data, version 3 Mar 2020, timestep = 63

47 atoms
12 atom types
46 bonds
11 bond types
78 angles
18 angle types
116 dihedrals
24 dihedral types
2 impropers
1 improper types

1.1564300000000000e+02 1.2054600000000001e+02 xlo xhi
1.0320000000000000e+02 1.0807800000000000e+02 ylo yhi
1.5254000000000000e+01 3.3865000000000002e+01 zlo zhi

Masses

1 1.008
2 1.008
3 1.008
4 1.008
5 12.011
6 12.011
7 12.011
8 12.011
9 14.007
10 15.9994
11 55.845
12 15.9994

Pair Coeffs # lj/charmm/coul/long

1 0.046 0.400014 0.046 0.400014
2 0.03 2.42004 0.03 2.42004
3 0.022 2.35197 0.022 2.35197
4 0.034 2.38761 0.034 2.38761
5 0.07 3.55005 0.07 3.55005
6 0.032 3.56359 0.01 3.38542
7 0.056 3.58141 0.01 3.38542
8 0.07 3.56359 0.07 3.56359
9 0.2 3.29633 0.2 3.29633
10 0.12 3.02906 0.12 3.02906
11 0.1252 1.00903 0.1252 1.00903
12 0.12 3.11815 0.12 3.11815

Bond Coeffs # harmonic

1 305 1.375
2 230 1.49
3 340 1.08
4 525 1.26
5 200 1.522
6 525 1.26
7 222.5 1.538
8 330 1.08
9 200 1.48
10 309 1.111
11 403 1.04

Angle Coeffs # charmm

1 40 120 35 2.4162
2 45.8 122.3 0 0
3 30 120 22 2.1525
4 40 120 0 0
5 51.8 107.5 0 0
6 49.3 107.5 0 0
7 52 108 0 0
8 50 109.5 0 0
9 43.7 110 0 0
10 40 118 50 2.388
11 26.5 110.1 22.53 2.179
12 30 109.5 20 2.074
13 35 111 0 0
14 67.7 110 0 0
15 35.5 109 5.4 1.802
16 51.5 107.5 0 0
17 44 109.5 0 0
18 100 124 70 2.225

Dihedral Coeffs # charmm

1 3.1 2 180 0.5
2 3.1 2 180 1
3 4.2 2 180 1
4 3.1 2 180 1
5 1.07 1 0 1
6 0.24 2 180 0
7 0.17 3 180 0
8 0 6 0 1
9 0.04 3 0 1
10 0.2 3 0 1
11 0.2 3 0 1
12 0.2 3 0 1
13 0.1 3 0 1
14 4.2 2 180 1
15 0.05 6 180 1
16 0.1 3 0 1
17 0.2 3 0 1
18 0.2 3 0 1
19 0.05 6 180 1
20 0.1 3 0 1
21 2.4 2 180 1
22 2.4 2 180 1
23 3.2 2 180 1
24 3.3808 2 180 1

Improper Coeffs # harmonic

1 96 0

Atoms # full

46 2 10 -6.7000000000000004e-01 1.1877025629600223e+02 1.0744044912724944e+02 1.7957314555377579e+01 0 0 0
24 2 9 -2.9999999999999999e-01 1.1726938373404126e+02 1.0420096561450467e+02 1.6804689204763857e+01 0 0 0
25 2 1 3.3000000000000002e-01 1.1675125958789296e+02 1.0343730319354508e+02 1.7293740986629462e+01 0 0 0
26 2 1 3.3000000000000002e-01 1.1803997391204308e+02 1.0355976587042082e+02 1.6494434512402524e+01 0 0 0
27 2 1 3.3000000000000002e-01 1.1666091563695913e+02 1.0458305158574365e+02 1.6058065164609758e+01 0 0 0
28 2 6 2.0999999999999999e-01 1.1779688220034420e+02 1.0518362116003716e+02 1.7834114137323574e+01 0 0 0
29 2 3 1.0000000000000001e-01 1.1881024361842023e+02 1.0488663230135560e+02 1.8090621367060525e+01 0 0 0
30 2 7 -1.8200000000000000e-01 1.1686827069921767e+02 1.0491617992688448e+02 1.9064422486399071e+01 0 0 0
31 2 4 8.9999999999999997e-02 1.1673601006254302e+02 1.0382349602051859e+02 1.9221269418539524e+01 0 0 0
32 2 4 8.9999999999999997e-02 1.1585533189970403e+02 1.0533330759271104e+02 1.8890922009955517e+01 0 0 0
45 2 10 -6.7000000000000004e-01 1.1726933805659948e+02 1.0722667033559384e+02 1.6464645374959463e+01 0 0 0
44 2 8 3.4000000000000002e-01 1.1794572656572427e+02 1.0667305913354410e+02 1.7397172990144160e+01 0 0 0
33 2 5 -5.0000000000000001e-03 1.1737360103288009e+02 1.0544185302042303e+02 2.0382043161368575e+01 0 0 0
34 2 5 -1.1799999999999999e-01 1.1679198852406428e+02 1.0662186267427150e+02 2.0912477324020511e+01 0 0 0
36 2 5 -6.0199999999999998e-01 1.1821277757250830e+02 1.0463245736182817e+02 2.1204584566708075e+01 0 0 0
37 2 2 2.8000000000000003e-01 1.1860870191462703e+02 1.0368751013090831e+02 2.0861134564484914e+01 0 0 0
38 2 5 -5.9099999999999997e-01 1.1708705797846821e+02 1.0713601105395435e+02 2.2206216417997570e+01 0 0 0
39 2 2 2.8000000000000003e-01 1.1656923667118856e+02 1.0798950041436490e+02 2.2615898441585280e+01 0 0 0
40 2 5 8.7999999999999995e-02 1.1842783923640471e+02 1.0507304082104143e+02 2.2497826100879472e+01 0 0 0
41 2 12 -7.6400000000000001e-01 1.1884195449857766e+02 1.0427096513403417e+02 2.3386176663304720e+01 0 0 0
42 2 5 8.0000000000000002e-02 1.1787275244858832e+02 1.0628082559270814e+02 2.2965845827017784e+01 0 0 0
43 2 12 -7.6100000000000001e-01 1.1781088083423606e+02 1.0638676793333194e+02 2.4208914865704187e+01 0 0 0
35 2 2 1.1500000000000000e-01 1.1603428025747127e+02 1.0710509058481614e+02 2.0317614273071626e+01 0 0 0
13 1 5 -6.0199999999999998e-01 1.1916843605676189e+02 1.0537783242182462e+02 2.7856116038545988e+01 0 0 0
14 1 2 2.8000000000000003e-01 1.2009483347265017e+02 1.0592841390113182e+02 2.7912523948806836e+01 0 0 0
15 1 5 -5.9099999999999997e-01 1.1662999090651287e+02 1.0397656027600544e+02 2.7501827615040483e+01 0 0 0
16 1 2 2.8000000000000003e-01 1.1571941414987225e+02 1.0342324586615088e+02 2.7299770440025931e+01 0 0 0
17 1 5 8.7999999999999995e-02 1.1867845996233078e+02 1.0502897118685233e+02 2.6622389077189549e+01 0 0 0
18 1 12 -7.6400000000000001e-01 1.1939660342351294e+02 1.0521779008788167e+02 2.5606648333617684e+01 0 0 0
19 1 5 8.0000000000000002e-02 1.1743596243704337e+02 1.0440427233867499e+02 2.6435526608753957e+01 0 0 0
20 1 12 -7.6100000000000001e-01 1.1716696446007711e+02 1.0421995492314726e+02 2.5219959548876034e+01 0 0 0
47 3 11 3.0000000000000000e+00 1.1829767794584298e+02 1.0500388582796069e+02 2.4581103075696923e+01 0 0 0
11 1 5 -1.1799999999999999e-01 1.1725981012808693e+02 1.0413834590307826e+02 2.8783707131302876e+01 0 0 0
10 1 5 -5.0000000000000001e-03 1.1843851928769510e+02 1.0492127408351455e+02 2.8975640406803691e+01 0 0 0
1 1 9 -2.9999999999999999e-01 1.1764114154034196e+02 1.0577122938952776e+02 3.2150135663754256e+01 0 0 0
2 1 1 3.3000000000000002e-01 1.1729753732480293e+02 1.0634588621479959e+02 3.1354221328375139e+01 0 0 0
3 1 1 3.3000000000000002e-01 1.1813051072967248e+02 1.0637263405358622e+02 3.2851303030024255e+01 0 0 0
4 1 1 3.3000000000000002e-01 1.1676876831073160e+02 1.0536099573917367e+02 3.2600147644331621e+01 0 0 0
5 1 6 2.0999999999999999e-01 1.1859393819998951e+02 1.0468779241207729e+02 3.1618976151380892e+01 0 0 0
6 1 3 1.0000000000000001e-01 1.1804318143405931e+02 1.0377623220889529e+02 3.1462046205510251e+01 0 0 0
7 1 7 -1.8200000000000000e-01 1.1918045410317562e+02 1.0517331379701791e+02 3.0260894784665087e+01 0 0 0
8 1 4 8.9999999999999997e-02 1.2007427112473630e+02 1.0458024862527445e+02 3.0062158822729291e+01 0 0 0
9 1 4 8.9999999999999997e-02 1.1949961826886643e+02 1.0623862548107226e+02 3.0290910732747680e+01 0 0 0
22 1 10 -6.7000000000000004e-01 1.2024955603017219e+02 1.0498050986218803e+02 3.3423385837323195e+01 0 0 0
23 1 10 -6.7000000000000004e-01 1.1565755784585667e+02 1.0326851723111831e+02 3.2081084517011504e+01 1 0 0
12 1 2 1.1500000000000000e-01 1.1683483778590860e+02 1.0362634546962222e+02 2.9626168798714534e+01 0 0 0
21 1 8 3.4000000000000002e-01 1.1988429183279395e+02 1.0427573611563392e+02 3.2452209844464647e+01 0 0 0

Velocities

46 0.0000000000000000e+00 0.0000000000000000e+00 0.0000000000000000e+00
24 0.0000000000000000e+00 0.0000000000000000e+00 0.0000000000000000e+00
25 0.0000000000000000e+00 0.0000000000000000e+00 0.0000000000000000e+00
26 0.0000000000000000e+00 0.0000000000000000e+00 0.0000000000000000e+00
27 0.0000000000000000e+00 0.0000000000000000e+00 0.0000000000000000e+00
28 0.0000000000000000e+00 0.0000000000000000e+00 0.0000000000000000e+00
29 0.0000000000000000e+00 0.0000000000000000e+00 0.0000000000000000e+00
30 0.0000000000000000e+00 0.0000000000000000e+00 0.0000000000000000e+00
31 0.0000000000000000e+00 0.0000000000000000e+00 0.0000000000000000e+00
32 0.0000000000000000e+00 0.0000000000000000e+00 0.0000000000000000e+00
45 0.0000000000000000e+00 0.0000000000000000e+00 0.0000000000000000e+00
44 0.0000000000000000e+00 0.0000000000000000e+00 0.0000000000000000e+00
33 0.0000000000000000e+00 0.0000000000000000e+00 0.0000000000000000e+00
34 0.0000000000000000e+00 0.0000000000000000e+00 0.0000000000000000e+00
36 0.0000000000000000e+00 0.0000000000000000e+00 0.0000000000000000e+00
37 0.0000000000000000e+00 0.0000000000000000e+00 0.0000000000000000e+00
38 0.0000000000000000e+00 0.0000000000000000e+00 0.0000000000000000e+00
39 0.0000000000000000e+00 0.0000000000000000e+00 0.0000000000000000e+00
40 0.0000000000000000e+00 0.0000000000000000e+00 0.0000000000000000e+00
41 0.0000000000000000e+00 0.0000000000000000e+00 0.0000000000000000e+00
42 0.0000000000000000e+00 0.0000000000000000e+00 0.0000000000000000e+00
43 0.0000000000000000e+00 0.0000000000000000e+00 0.0000000000000000e+00
35 0.0000000000000000e+00 0.0000000000000000e+00 0.0000000000000000e+00
13 0.0000000000000000e+00 0.0000000000000000e+00 0.0000000000000000e+00
14 0.0000000000000000e+00 0.0000000000000000e+00 0.0000000000000000e+00
15 0.0000000000000000e+00 0.0000000000000000e+00 0.0000000000000000e+00
16 0.0000000000000000e+00 0.0000000000000000e+00 0.0000000000000000e+00
17 0.0000000000000000e+00 0.0000000000000000e+00 0.0000000000000000e+00
18 0.0000000000000000e+00 0.0000000000000000e+00 0.0000000000000000e+00
19 0.0000000000000000e+00 0.0000000000000000e+00 0.0000000000000000e+00
20 0.0000000000000000e+00 0.0000000000000000e+00 0.0000000000000000e+00
47 0.0000000000000000e+00 0.0000000000000000e+00 0.0000000000000000e+00
11 0.0000000000000000e+00 0.0000000000000000e+00 0.0000000000000000e+00
10 0.0000000000000000e+00 0.0000000000000000e+00 0.0000000000000000e+00
1 0.0000000000000000e+00 0.0000000000000000e+00 0.0000000000000000e+00
2 0.0000000000000000e+00 0.0000000000000000e+00 0.0000000000000000e+00
3 0.0000000000000000e+00 0.0000000000000000e+00 0.0000000000000000e+00
4 0.0000000000000000e+00 0.0000000000000000e+00 0.0000000000000000e+00
5 0.0000000000000000e+00 0.0000000000000000e+00 0.0000000000000000e+00
6 0.0000000000000000e+00 0.0000000000000000e+00 0.0000000000000000e+00
7 0.0000000000000000e+00 0.0000000000000000e+00 0.0000000000000000e+00
8 0.0000000000000000e+00 0.0000000000000000e+00 0.0000000000000000e+00
9 0.0000000000000000e+00 0.0000000000000000e+00 0.0000000000000000e+00
22 0.0000000000000000e+00 0.0000000000000000e+00 0.0000000000000000e+00
23 0.0000000000000000e+00 0.0000000000000000e+00 0.0000000000000000e+00
12 0.0000000000000000e+00 0.0000000000000000e+00 0.0000000000000000e+00
21 0.0000000000000000e+00 0.0000000000000000e+00 0.0000000000000000e+00

Bonds

1 9 24 28
2 11 25 24
3 11 26 24
4 11 27 24
5 8 28 29
6 7 30 28
7 10 30 31
8 10 30 32
9 2 30 33
10 6 44 46
11 6 44 45
12 5 44 28
13 1 33 34
14 3 34 35
15 3 36 37
16 1 36 40
17 1 36 33
18 3 38 39
19 1 38 42
20 1 38 34
21 4 40 41
22 1 40 42
23 4 42 43
24 3 13 14
25 1 13 17
26 1 13 10
27 3 15 16
28 1 15 19
29 1 15 11
30 4 17 18
31 1 17 19
32 4 19 20
33 3 11 12
34 1 10 11
35 9 1 5
36 11 2 1
37 11 3 1
38 11 4 1
39 8 5 6
40 7 7 5
41 10 7 8
42 10 7 9
43 2 7 10
44 6 21 23
45 6 21 22
46 5 21 5

Angles

1 12 25 24 28
2 17 25 24 27
3 17 25 24 26
4 12 26 24 28
5 17 26 24 27
6 12 27 24 28
7 9 24 28 44
8 8 29 28 44
9 16 29 28 24
10 7 30 28 44
11 14 30 28 24
12 13 30 28 29
13 5 28 30 33
14 11 28 30 32
15 11 28 30 31
16 6 31 30 33
17 15 31 30 32
18 6 32 30 33
19 10 45 44 28
20 10 46 44 28
21 18 46 44 45
22 2 30 33 36
23 2 30 33 34
24 1 34 33 36
25 1 33 34 38
26 3 33 34 35
27 3 35 34 38
28 3 37 36 33
29 3 37 36 40
30 1 40 36 33
31 3 39 38 34
32 3 39 38 42
33 1 42 38 34
34 1 36 40 42
35 4 36 40 41
36 4 41 40 42
37 1 38 42 40
38 4 38 42 43
39 4 43 42 40
40 3 14 13 10
41 3 14 13 17
42 1 17 13 10
43 3 16 15 11
44 3 16 15 19
45 1 19 15 11
46 1 13 17 19
47 4 13 17 18
48 4 18 17 19
49 1 15 19 17
50 4 15 19 20
51 4 20 19 17
52 1 10 11 15
53 3 10 11 12
54 3 12 11 15
55 2 7 10 13
56 2 7 10 11
57 1 11 10 13
58 12 2 1 5
59 17 2 1 4
60 17 2 1 3
61 12 3 1 5
62 17 3 1 4
63 12 4 1 5
64 9 1 5 21
65 8 6 5 21
66 16 6 5 1
67 7 7 5 21
68 14 7 5 1
69 13 7 5 6
70 5 5 7 10
71 11 5 7 9
72 11 5 7 8
73 6 8 7 10
74 15 8 7 9
75 6 9 7 10
76 10 22 21 5
77 10 23 21 5
78 18 23 21 22

Dihedrals

1 16 25 24 28 30
2 20 25 24 28 29
3 13 25 24 28 44
4 16 26 24 28 30
5 20 26 24 28 29
6 13 26 24 28 44
7 16 27 24 28 30
8 20 27 24 28 29
9 13 27 24 28 44
10 18 24 28 30 31
11 18 24 28 30 32
12 11 24 28 30 33
13 23 24 28 44 46
14 23 24 28 44 45
15 17 29 28 30 31
16 17 29 28 30 32
17 10 29 28 30 33
18 19 29 28 44 46
19 19 29 28 44 45
20 15 30 28 44 46
21 15 30 28 44 45
22 5 28 30 33 34
23 6 28 30 33 34
24 7 28 30 33 34
25 5 28 30 33 36
26 6 28 30 33 36
27 7 28 30 33 36
28 12 31 30 28 44
29 8 31 30 33 34
30 8 31 30 33 36
31 12 32 30 28 44
32 8 32 30 33 34
33 8 32 30 33 36
34 9 33 30 28 44
35 14 30 33 34 35
36 2 30 33 34 38
37 14 30 33 36 37
38 2 30 33 36 40
39 3 34 33 36 37
40 1 34 33 36 40
41 1 36 33 34 38
42 3 33 34 38 39
43 1 33 34 38 42
44 3 35 34 33 36
45 21 35 34 38 39
46 3 35 34 38 42
47 4 33 36 40 41
48 1 33 36 40 42
49 22 37 36 40 41
50 3 37 36 40 42
51 4 34 38 42 43
52 1 34 38 42 40
53 22 39 38 42 43
54 3 39 38 42 40
55 1 36 40 42 38
56 4 36 40 42 43
57 24 41 40 42 43
58 4 38 42 40 41
59 4 10 13 17 18
60 1 10 13 17 19
61 22 14 13 17 18
62 3 14 13 17 19
63 4 11 15 19 20
64 1 11 15 19 17
65 22 16 15 19 20
66 3 16 15 19 17
67 1 13 17 19 15
68 4 13 17 19 20
69 24 18 17 19 20
70 4 15 19 17 18
71 3 10 11 15 16
72 1 10 11 15 19
73 3 12 11 10 13
74 21 12 11 15 16
75 3 12 11 15 19
76 14 7 10 11 12
77 2 7 10 11 15
78 14 7 10 13 14
79 2 7 10 13 17
80 3 11 10 13 14
81 1 11 10 13 17
82 1 13 10 11 15
83 16 2 1 5 7
84 20 2 1 5 6
85 13 2 1 5 21
86 16 3 1 5 7
87 20 3 1 5 6
88 13 3 1 5 21
89 16 4 1 5 7
90 20 4 1 5 6
91 13 4 1 5 21
92 18 1 5 7 8
93 18 1 5 7 9
94 11 1 5 7 10
95 23 1 5 21 23
96 23 1 5 21 22
97 17 6 5 7 8
98 17 6 5 7 9
99 10 6 5 7 10
100 19 6 5 21 23
101 19 6 5 21 22
102 15 7 5 21 23
103 15 7 5 21 22
104 5 5 7 10 11
105 6 5 7 10 11
106 7 5 7 10 11
107 5 5 7 10 13
108 6 5 7 10 13
109 7 5 7 10 13
110 12 8 7 5 21
111 8 8 7 10 11
112 8 8 7 10 13
113 12 9 7 5 21
114 8 9 7 10 11
115 8 9 7 10 13
116 9 10 7 5 21

Impropers

1 1 44 28 46 45
2 1 21 5 23 22
