LAMMPS data file via write_data, version 3 Mar 2020, timestep = 11063

47 atoms
12 atom types
46 bonds
11 bond types
78 angles
18 angle types
116 dihedrals
24 dihedral types
2 impropers
1 improper types

1.1571271319154778e+02 1.2047628680845222e+02 xlo xhi
1.0326935772962850e+02 1.0800864227037151e+02 ylo yhi
1.5518620070954229e+01 3.3600379929045516e+01 zlo zhi

Masses

1 1.008
2 1.008
3 1.008
4 1.008
5 12.011
6 12.011
7 12.011
8 12.011
9 14.007
10 15.9994
11 55.845
12 15.9994

Pair Coeffs # lj/charmm/coul/long

1 0.046 0.400014 0.046 0.400014
2 0.03 2.42004 0.03 2.42004
3 0.022 2.35197 0.022 2.35197
4 0.034 2.38761 0.034 2.38761
5 0.07 3.55005 0.07 3.55005
6 0.032 3.56359 0.01 3.38542
7 0.056 3.58141 0.01 3.38542
8 0.07 3.56359 0.07 3.56359
9 0.2 3.29633 0.2 3.29633
10 0.12 3.02906 0.12 3.02906
11 0.1252 1.00903 0.1252 1.00903
12 0.12 3.11815 0.12 3.11815

Bond Coeffs # harmonic

1 305 1.375
2 230 1.49
3 340 1.08
4 525 1.26
5 200 1.522
6 525 1.26
7 222.5 1.538
8 330 1.08
9 200 1.48
10 309 1.111
11 403 1.04

Angle Coeffs # charmm

1 40 120 35 2.4162
2 45.8 122.3 0 0
3 30 120 22 2.1525
4 40 120 0 0
5 51.8 107.5 0 0
6 49.3 107.5 0 0
7 52 108 0 0
8 50 109.5 0 0
9 43.7 110 0 0
10 40 118 50 2.388
11 26.5 110.1 22.53 2.179
12 30 109.5 20 2.074
13 35 111 0 0
14 67.7 110 0 0
15 35.5 109 5.4 1.802
16 51.5 107.5 0 0
17 44 109.5 0 0
18 100 124 70 2.225

Dihedral Coeffs # charmm

1 3.1 2 180 0.5
2 3.1 2 180 1
3 4.2 2 180 1
4 3.1 2 180 1
5 1.07 1 0 1
6 0.24 2 180 0
7 0.17 3 180 0
8 0 6 0 1
9 0.04 3 0 1
10 0.2 3 0 1
11 0.2 3 0 1
12 0.2 3 0 1
13 0.1 3 0 1
14 4.2 2 180 1
15 0.05 6 180 1
16 0.1 3 0 1
17 0.2 3 0 1
18 0.2 3 0 1
19 0.05 6 180 1
20 0.1 3 0 1
21 2.4 2 180 1
22 2.4 2 180 1
23 3.2 2 180 1
24 3.3808 2 180 1

Improper Coeffs # harmonic

1 96 0

Atoms # full

46 2 10 -6.7000000000000004e-01 1.1948390158309770e+02 1.0559490134122197e+02 1.8449508448513505e+01 0 0 0
24 2 9 -2.9999999999999999e-01 1.1856887281650781e+02 1.0672158101705156e+02 1.7507478822921748e+01 0 -1 0
25 2 1 3.3000000000000002e-01 1.1812132171029650e+02 1.0607938589899206e+02 1.8221397079087300e+01 0 -1 0
26 2 1 3.3000000000000002e-01 1.1946746439244137e+02 1.0630734837685701e+02 1.7279997344297374e+01 0 -1 0
27 2 1 3.3000000000000002e-01 1.1806063501201454e+02 1.0668342176748905e+02 1.6637383289362369e+01 0 -1 0
28 2 6 2.0999999999999999e-01 1.1872582283274535e+02 1.0331958344080448e+02 1.8254335505975988e+01 0 0 0
29 2 3 1.0000000000000001e-01 1.1947559904534000e+02 1.0794217296351954e+02 1.9017274523520062e+01 0 -1 0
30 2 7 -1.8200000000000000e-01 1.1736935116866584e+02 1.0341342300928325e+02 1.9127614025408985e+01 0 0 0
31 2 4 8.9999999999999997e-02 1.1681378173654471e+02 1.0717135993936346e+02 1.9123870429021316e+01 0 -1 0
32 2 4 8.9999999999999997e-02 1.1671514304085463e+02 1.0412868418375999e+02 1.8682687153527425e+01 0 0 0
45 2 10 -6.7000000000000004e-01 1.1853525824384076e+02 1.0530902885736285e+02 1.6592607555435460e+01 0 0 0
44 2 8 3.4000000000000002e-01 1.1899340013451672e+02 1.0477700299146370e+02 1.7673753366468485e+01 0 0 0
33 2 5 -5.0000000000000001e-03 1.1750141305474286e+02 1.0379441536454173e+02 2.0562392695813966e+01 0 0 0
34 2 5 -1.1799999999999999e-01 1.1665981635757046e+02 1.0469922290458631e+02 2.1235255238991449e+01 0 0 0
36 2 5 -6.0199999999999998e-01 1.1823599494864870e+02 1.0760870315567215e+02 2.1320596144659923e+01 0 -1 0
37 2 2 2.8000000000000003e-01 1.1883461498401763e+02 1.0686569149841286e+02 2.0820721245356843e+01 0 -1 0
38 2 5 -5.9099999999999997e-01 1.1662905018133405e+02 1.0478724950169031e+02 2.2651969553356096e+01 0 0 0
39 2 2 2.8000000000000003e-01 1.1594540309961177e+02 1.0548137477676291e+02 2.3138717871804264e+01 0 0 0
40 2 5 8.7999999999999995e-02 1.1803510139405654e+02 1.0759810147813211e+02 2.2692896005655957e+01 0 -1 0
41 2 12 -7.6400000000000001e-01 1.1855947167598332e+02 1.0666476120327832e+02 2.3389307502707510e+01 0 -1 0
42 2 5 8.0000000000000002e-02 1.1721900183380168e+02 1.0376122244468826e+02 2.3330072118899807e+01 0 0 0
43 2 12 -7.6100000000000001e-01 1.1713429541688529e+02 1.0351982773696484e+02 2.4549157498309938e+01 0 0 0
35 2 2 1.1500000000000000e-01 1.1612107966420132e+02 1.0542857065464860e+02 2.0638308063905761e+01 0 0 0
13 1 5 -6.0199999999999998e-01 1.1583870578317423e+02 1.0651455451758649e+02 2.7235619999187435e+01 1 -1 0
14 1 2 2.8000000000000003e-01 1.1643114503128925e+02 1.0738434826305811e+02 2.7384147227830596e+01 1 -1 0
15 1 5 -5.9099999999999997e-01 1.1851463396026131e+02 1.0467092539148103e+02 2.7084856352979692e+01 0 -1 0
16 1 2 2.8000000000000003e-01 1.1761676676700230e+02 1.0412723593970995e+02 2.7084797564821290e+01 0 -1 0
17 1 5 8.7999999999999995e-02 1.1956254189316432e+02 1.0668361627414869e+02 2.6325136287032471e+01 0 -1 0
18 1 12 -7.6400000000000001e-01 1.1937135248483214e+02 1.0767579548264911e+02 2.5570044395787257e+01 0 -1 0
19 1 5 8.0000000000000002e-02 1.1849957421053563e+02 1.0578040936549964e+02 2.6283308892513308e+01 0 -1 0
20 1 12 -7.6100000000000001e-01 1.1747843659636580e+02 1.0609864417781598e+02 2.5618700654078079e+01 0 -1 0
10 1 5 -5.0000000000000001e-03 1.1573574261484194e+02 1.0556972263734923e+02 2.8290463208453506e+01 1 -1 0
11 1 5 -1.1799999999999999e-01 1.1948659136922588e+02 1.0453948412171175e+02 2.8109003434592143e+01 0 -1 0
47 3 11 3.0000000000000000e+00 1.1815868609679428e+02 1.0714218479463743e+02 2.4778682349103409e+01 0 -1 0
12 1 2 1.1500000000000000e-01 1.1929118878370952e+02 1.0385609328687124e+02 2.8871561918343129e+01 0 -1 0
1 1 9 -2.9999999999999999e-01 1.1965553292257758e+02 1.0616107162686818e+02 3.1349013870183381e+01 0 -1 0
2 1 1 3.3000000000000002e-01 1.1902901877194559e+02 1.0577839763252587e+02 3.0570532664680709e+01 0 -1 0
3 1 1 3.3000000000000002e-01 1.1946008039526659e+02 1.0714143338271305e+02 3.1481838660768858e+01 0 -1 0
4 1 1 3.3000000000000002e-01 1.1930320334627191e+02 1.0562164414286025e+02 3.2153720246265550e+01 0 -1 0
5 1 6 2.0999999999999999e-01 1.1628431806823711e+02 1.0551772801316822e+02 3.0985927624383564e+01 1 -1 0
6 1 3 1.0000000000000001e-01 1.1609376218653220e+02 1.0449168680391961e+02 3.1013823677142607e+01 1 -1 0
7 1 7 -1.8200000000000000e-01 1.1662028517485305e+02 1.0592951846172039e+02 2.9509143053445442e+01 1 -1 0
8 1 4 8.9999999999999997e-02 1.1752850072832926e+02 1.0540633795360533e+02 2.9226904715020950e+01 1 -1 0
9 1 4 8.9999999999999997e-02 1.1678835746902783e+02 1.0706871022118548e+02 2.9473940505240584e+01 1 -1 0
22 1 10 -6.7000000000000004e-01 1.1827366966730058e+02 1.0676904932466657e+02 3.2072211236058990e+01 1 -1 0
23 1 10 -6.7000000000000004e-01 1.1847818351658979e+02 1.0471374754697332e+02 3.1365632878634525e+01 1 -1 0
21 1 8 3.4000000000000002e-01 1.1770657033521407e+02 1.0572568335849155e+02 3.1641703479161421e+01 1 -1 0

Velocities

46 -4.9742992314801941e-03 4.1629526353405902e-03 1.9969096084570355e-03
24 -3.3632298794765659e-03 4.5761544494534075e-03 3.0769607791387410e-03
25 -5.6839320645201358e-03 1.8377974945091569e-02 -1.9019718025757054e-02
26 -1.4064964102077426e-02 -2.8097472673418683e-03 2.3588443565105598e-02
27 -6.8357975828248181e-03 5.6951945663005973e-03 1.4182938050239765e-03
28 -9.1423656285319534e-03 -3.7796394624960120e-03 3.7754468013208040e-03
29 -1.2868288351210530e-02 1.2934825625824457e-02 3.8795279469650314e-02
30 -1.3845440258792705e-02 1.1504457566931152e-03 -3.7845757135480450e-03
31 -1.3892364414094163e-02 -7.3281259516426297e-03 5.0865007907570292e-03
32 -2.4930123053789235e-02 1.3637308149687514e-03 2.4175257316828538e-02
45 -7.7399893644935032e-03 -3.7904741838197488e-03 3.3981082755963231e-03
44 -3.3911904285586423e-04 7.8901849889086108e-04 5.3301713470736639e-03
33 -4.9370274784065393e-03 -2.2413497912672992e-03 8.2152162150328490e-04
34 -2.6962655129020613e-03 9.5173792354177422e-04 7.5871832762022520e-03
36 -6.5933891703038629e-03 -2.4430148428722853e-03 8.9055390565904454e-05
37 -1.9601141950673421e-02 -9.9594149340958872e-03 1.0088839576693119e-02
38 -2.8756382137602454e-03 -1.2744047206057938e-03 4.5044069745948491e-03
39 -2.7788644764641206e-02 -2.6438787635171754e-02 2.9165445146772970e-02
40 4.8399516597896628e-04 -8.5012013421569502e-03 4.2951922306320453e-03
41 5.8526505895490286e-03 2.2447825430297512e-03 2.8451428661564310e-03
42 3.0103362651119339e-03 -9.7427006106497148e-03 -2.1213198347353876e-05
43 -4.4009304698153255e-03 -5.0789999254099716e-03 -1.8163276191397553e-03
35 -1.1815175656574457e-02 -2.1431771619075311e-02 2.3869836229538473e-02
13 6.7660241434033281e-03 -3.6078848501762423e-03 -1.5371224656482397e-03
14 2.6225149682605104e-02 1.9148628726492563e-03 -2.5873394732107129e-02
15 5.2672798829145467e-03 -1.0198183699020722e-04 6.4621719727910531e-04
16 1.1029829933974592e-02 1.6915456456634533e-03 -8.0665567835033238e-03
17 -3.4271289998164152e-03 -7.0354152614858414e-03 2.4198530957131024e-03
18 2.5168974279294585e-03 -2.9027920194957348e-03 2.7821844989265568e-03
19 3.9084550345252472e-03 -9.6893219469442998e-03 7.3356248522134610e-03
20 -1.3288024296847214e-03 -5.7425558288790850e-03 4.2207080154137112e-04
10 2.5881707415523294e-03 -3.5857114424840807e-03 -6.5041091105632362e-04
11 -1.2708780304548193e-02 -2.4471099128031458e-03 -1.5505769998432793e-03
47 1.4638286172050014e-03 -3.6742780730472757e-03 9.2608482931393261e-04
12 1.1819573251650338e-02 -1.8853392665032335e-02 1.6826924078335706e-02
1 2.5684802032573972e-03 -9.9463486460021414e-03 -4.3116010226077655e-03
2 7.4141405451918453e-03 -1.8469445195436775e-02 5.1629814035072984e-03
3 -1.0878275018929257e-02 -1.6528003516403749e-02 -1.4755814524865313e-02
4 8.4776040910859839e-03 -1.2399347030408491e-02 4.5097341837994171e-03
5 5.6186423471251239e-03 -1.0430303749926068e-02 -5.8543668948224832e-03
6 -2.5400567640529559e-02 9.0246481109869001e-04 -1.7152465786176312e-03
7 1.4001911956990683e-02 -3.9543777330763299e-03 3.7553320725835682e-03
8 -5.4014056074179924e-03 -4.0511429251468160e-02 -2.9262690261143013e-03
9 8.6841000604841283e-03 -5.3708151633380212e-03 -3.3658935835318524e-02
22 7.0101513797206812e-03 -5.6551901133892947e-04 -9.6753262362939147e-03
23 4.9497003517523811e-03 -2.3626187393651363e-03 3.8226246684303156e-03
21 -4.8743694734125591e-03 -6.5090529748930339e-03 -4.8473871209880519e-03

Bonds

1 9 24 28
2 11 25 24
3 11 26 24
4 11 27 24
5 8 28 29
6 7 30 28
7 10 30 31
8 10 30 32
9 2 30 33
10 6 44 46
11 6 44 45
12 5 44 28
13 1 33 34
14 3 34 35
15 3 36 37
16 1 36 40
17 1 36 33
18 3 38 39
19 1 38 42
20 1 38 34
21 4 40 41
22 1 40 42
23 4 42 43
24 3 13 14
25 1 13 17
26 1 13 10
27 3 15 16
28 1 15 19
29 1 15 11
30 4 17 18
31 1 17 19
32 4 19 20
33 1 10 11
34 3 11 12
35 9 1 5
36 11 2 1
37 11 3 1
38 11 4 1
39 8 5 6
40 7 7 5
41 10 7 8
42 10 7 9
43 2 7 10
44 6 21 23
45 6 21 22
46 5 21 5

Angles

1 12 25 24 28
2 17 25 24 27
3 17 25 24 26
4 12 26 24 28
5 17 26 24 27
6 12 27 24 28
7 9 24 28 44
8 8 29 28 44
9 16 29 28 24
10 7 30 28 44
11 14 30 28 24
12 13 30 28 29
13 5 28 30 33
14 11 28 30 32
15 11 28 30 31
16 6 31 30 33
17 15 31 30 32
18 6 32 30 33
19 10 45 44 28
20 10 46 44 28
21 18 46 44 45
22 2 30 33 36
23 2 30 33 34
24 1 34 33 36
25 1 33 34 38
26 3 33 34 35
27 3 35 34 38
28 3 37 36 33
29 3 37 36 40
30 1 40 36 33
31 3 39 38 34
32 3 39 38 42
33 1 42 38 34
34 1 36 40 42
35 4 36 40 41
36 4 41 40 42
37 1 38 42 40
38 4 38 42 43
39 4 43 42 40
40 3 14 13 10
41 3 14 13 17
42 1 17 13 10
43 3 16 15 11
44 3 16 15 19
45 1 19 15 11
46 1 13 17 19
47 4 13 17 18
48 4 18 17 19
49 1 15 19 17
50 4 15 19 20
51 4 20 19 17
52 2 7 10 13
53 2 7 10 11
54 1 11 10 13
55 1 10 11 15
56 3 10 11 12
57 3 12 11 15
58 12 2 1 5
59 17 2 1 4
60 17 2 1 3
61 12 3 1 5
62 17 3 1 4
63 12 4 1 5
64 9 1 5 21
65 8 6 5 21
66 16 6 5 1
67 7 7 5 21
68 14 7 5 1
69 13 7 5 6
70 5 5 7 10
71 11 5 7 9
72 11 5 7 8
73 6 8 7 10
74 15 8 7 9
75 6 9 7 10
76 10 22 21 5
77 10 23 21 5
78 18 23 21 22

Dihedrals

1 16 25 24 28 30
2 20 25 24 28 29
3 13 25 24 28 44
4 16 26 24 28 30
5 20 26 24 28 29
6 13 26 24 28 44
7 16 27 24 28 30
8 20 27 24 28 29
9 13 27 24 28 44
10 18 24 28 30 31
11 18 24 28 30 32
12 11 24 28 30 33
13 23 24 28 44 46
14 23 24 28 44 45
15 17 29 28 30 31
16 17 29 28 30 32
17 10 29 28 30 33
18 19 29 28 44 46
19 19 29 28 44 45
20 15 30 28 44 46
21 15 30 28 44 45
22 5 28 30 33 34
23 6 28 30 33 34
24 7 28 30 33 34
25 5 28 30 33 36
26 6 28 30 33 36
27 7 28 30 33 36
28 12 31 30 28 44
29 8 31 30 33 34
30 8 31 30 33 36
31 12 32 30 28 44
32 8 32 30 33 34
33 8 32 30 33 36
34 9 33 30 28 44
35 14 30 33 34 35
36 2 30 33 34 38
37 14 30 33 36 37
38 2 30 33 36 40
39 3 34 33 36 37
40 1 34 33 36 40
41 1 36 33 34 38
42 3 33 34 38 39
43 1 33 34 38 42
44 3 35 34 33 36
45 21 35 34 38 39
46 3 35 34 38 42
47 4 33 36 40 41
48 1 33 36 40 42
49 22 37 36 40 41
50 3 37 36 40 42
51 4 34 38 42 43
52 1 34 38 42 40
53 22 39 38 42 43
54 3 39 38 42 40
55 1 36 40 42 38
56 4 36 40 42 43
57 24 41 40 42 43
58 4 38 42 40 41
59 4 10 13 17 18
60 1 10 13 17 19
61 22 14 13 17 18
62 3 14 13 17 19
63 4 11 15 19 20
64 1 11 15 19 17
65 22 16 15 19 20
66 3 16 15 19 17
67 1 13 17 19 15
68 4 13 17 19 20
69 24 18 17 19 20
70 4 15 19 17 18
71 14 7 10 11 12
72 2 7 10 11 15
73 14 7 10 13 14
74 2 7 10 13 17
75 3 11 10 13 14
76 1 11 10 13 17
77 1 13 10 11 15
78 3 10 11 15 16
79 1 10 11 15 19
80 3 12 11 10 13
81 21 12 11 15 16
82 3 12 11 15 19
83 16 2 1 5 7
84 20 2 1 5 6
85 13 2 1 5 21
86 16 3 1 5 7
87 20 3 1 5 6
88 13 3 1 5 21
89 16 4 1 5 7
90 20 4 1 5 6
91 13 4 1 5 21
92 18 1 5 7 8
93 18 1 5 7 9
94 11 1 5 7 10
95 23 1 5 21 23
96 23 1 5 21 22
97 17 6 5 7 8
98 17 6 5 7 9
99 10 6 5 7 10
100 19 6 5 21 23
101 19 6 5 21 22
102 15 7 5 21 23
103 15 7 5 21 22
104 5 5 7 10 11
105 6 5 7 10 11
106 7 5 7 10 11
107 5 5 7 10 13
108 6 5 7 10 13
109 7 5 7 10 13
110 12 8 7 5 21
111 8 8 7 10 11
112 8 8 7 10 13
113 12 9 7 5 21
114 8 9 7 10 11
115 8 9 7 10 13
116 9 10 7 5 21

Impropers

1 1 44 28 46 45
2 1 21 5 23 22
